# vtk DataFile Version 3.0
vtk output
ASCII
DATASET POLYDATA
POINTS 21320 float
48.3784 -181.633 302.713 47.841 -181.825 303.326 47.4977 -181.547 304.037 
47.4796 -180.905 304.575 47.7936 -180.145 304.734 48.3197 -179.557 304.453 
48.8571 -179.366 303.84 49.2004 -179.644 303.129 49.2185 -180.286 302.591 
48.9045 -181.045 302.432 48.4598 -181.679 302.77 47.9188 -181.868 303.381 
47.5662 -181.585 304.085 47.5364 -180.937 304.615 47.841 -180.172 304.767 
48.3636 -179.582 304.484 48.9046 -179.393 303.874 49.2572 -179.676 303.169 
49.2869 -180.324 302.639 48.9823 -181.089 302.487 48.55 -181.719 302.842 
48.0054 -181.903 303.443 47.6388 -181.613 304.131 47.5903 -180.96 304.643 
47.8783 -180.192 304.784 48.3929 -179.604 304.499 48.9375 -179.42 303.899 
49.304 -179.71 303.211 49.3526 -180.363 302.699 49.0646 -181.131 302.558 
48.6232 -181.748 302.905 48.0745 -181.927 303.495 47.699 -181.634 304.169 
47.6402 -180.98 304.67 47.9205 -180.215 304.805 48.4329 -179.632 304.524 
48.9816 -179.453 303.933 49.3571 -179.746 303.259 49.4159 -180.401 302.759 
49.1356 -181.165 302.623 48.6776 -181.769 302.954 48.1241 -181.942 303.533 
47.7452 -181.647 304.198 47.6857 -180.997 304.694 47.9683 -180.24 304.832 
48.485 -179.665 304.559 49.0385 -179.492 303.979 49.4174 -179.787 303.315 
49.4769 -180.437 302.819 49.1943 -181.194 302.681 48.711 -181.779 302.987 
48.152 -181.946 303.555 47.7759 -181.654 304.215 47.7265 -181.014 304.715 
48.0225 -180.27 304.864 48.5509 -179.708 304.606 49.1098 -179.541 304.038 
49.4859 -179.833 303.378 49.5353 -180.473 302.878 49.2393 -181.217 302.729 
48.7216 -181.778 303.002 48.1564 -181.938 303.557 47.7899 -181.652 304.218 
47.7622 -181.029 304.732 48.0837 -180.308 304.904 48.6318 -179.763 304.667 
49.197 -179.603 304.112 49.5634 -179.89 303.451 49.5912 -180.512 302.936 
49.2696 -181.234 302.765 48.708 -181.761 302.997 48.1357 -181.911 303.539 
47.786 -181.637 304.207 47.7925 -181.043 304.746 48.1525 -180.356 304.95 
48.7287 -179.838 304.742 49.301 -179.688 304.2 49.6507 -179.962 303.532 
49.6443 -180.556 302.993 49.2842 -181.243 302.788 48.6705 -181.72 302.972 
48.0908 -181.86 303.5 47.7652 -181.607 304.181 47.8179 -181.058 304.755 
48.2288 -180.422 305.003 48.841 -179.943 304.83 49.4206 -179.803 304.302 
49.7463 -180.056 303.621 49.6936 -180.606 303.046 49.2827 -181.241 302.798 
48.6138 -181.649 302.931 48.0272 -181.775 303.445 47.7314 -181.555 304.145 
47.8394 -181.072 304.761 48.3099 -180.511 305.06 48.9632 -180.086 304.926 
49.5498 -179.96 304.411 49.8456 -180.181 303.712 49.7377 -180.663 303.095 
49.2672 -181.224 302.797 48.5494 -181.544 302.884 47.9571 -181.655 303.387 
47.6932 -181.481 304.106 47.8583 -181.088 304.765 48.3894 -180.627 305.113 
49.0836 -180.274 305.018 49.6759 -180.163 304.515 49.9398 -180.338 303.796 
49.7747 -180.73 303.137 49.2436 -181.191 302.789 48.4923 -181.416 302.847 
47.8968 -181.51 303.34 47.6613 -181.393 304.074 47.8759 -181.109 304.767 
48.4585 -180.767 305.155 49.1866 -180.498 305.09 49.7821 -180.404 304.597 
50.0175 -180.521 303.863 49.803 -180.805 303.17 49.2204 -181.147 302.782 
48.4537 -181.284 302.828 47.8578 -181.363 303.314 47.6436 -181.307 304.055 
47.893 -181.139 304.767 48.5106 -180.923 305.179 49.2605 -180.741 305.133 
49.8564 -180.662 304.647 50.0705 -180.717 303.906 49.8212 -180.885 303.193 
49.2036 -181.102 302.782 48.4354 -181.173 302.827 47.8417 -181.239 303.308 
47.6404 -181.243 304.049 47.9085 -181.183 304.765 48.5435 -181.083 305.184 
49.303 -180.98 305.145 49.8968 -180.914 304.664 50.0981 -180.91 303.923 
49.83 -180.97 303.207 49.1949 -181.071 302.788 48.4317 -181.099 302.836 
47.8416 -181.156 303.314 47.6464 -181.21 304.048 47.9207 -181.242 304.758 
48.5598 -181.239 305.172 49.3195 -181.202 305.133 49.9096 -181.146 304.655 
50.1048 -181.091 303.921 49.8304 -181.059 303.211 49.1914 -181.062 302.797 
48.4344 -181.066 302.848 47.8487 -181.116 303.323 47.6554 -181.212 304.047 
47.9282 -181.317 304.744 48.5631 -181.391 305.147 49.3175 -181.406 305.103 
49.9032 -181.356 304.628 50.0965 -181.26 303.904 49.8237 -181.155 303.207 
49.1888 -181.081 302.803 48.4372 -181.072 302.855 47.8562 -181.118 303.327 
47.6624 -181.246 304.04 47.9299 -181.407 304.722 48.5566 -181.54 305.112 
49.3029 -181.594 305.062 49.884 -181.548 304.59 50.0777 -181.42 303.877 
49.8102 -181.259 303.195 49.1836 -181.125 302.805 48.436 -181.113 302.854 
47.8597 -181.156 303.323 47.6645 -181.309 304.025 47.9252 -181.514 304.691 
48.542 -181.691 305.068 49.2794 -181.774 305.011 49.8558 -181.731 304.542 
50.0509 -181.577 303.841 49.7903 -181.373 303.174 49.1735 -181.195 302.798 
48.4285 -181.185 302.843 47.8568 -181.227 303.309 47.6601 -181.4 303.999 
47.9135 -181.637 304.651 48.5204 -181.848 305.015 49.2488 -181.952 304.953 
49.8205 -181.91 304.487 50.0172 -181.737 303.797 49.7638 -181.5 303.145 
49.1569 -181.289 302.781 48.4135 -181.286 302.82 47.8463 -181.327 303.282 
47.6482 -181.514 303.962 47.8948 -181.776 304.601 48.492 -182.012 304.954 
49.2117 -182.132 304.886 49.7789 -182.091 304.424 49.9771 -181.903 303.744 
49.7304 -181.642 303.106 49.1332 -181.406 302.753 48.3905 -181.413 302.785 
47.8276 -181.454 303.243 47.6283 -181.653 303.914 47.8687 -181.933 304.54 
48.457 -182.188 304.883 49.1683 -182.319 304.812 49.7312 -182.278 304.354 
49.9305 -182.079 303.683 49.6901 -181.799 303.057 49.1018 -181.545 302.714 
48.3589 -181.566 302.737 47.8004 -181.607 303.191 47.6003 -181.815 303.853 
47.8352 -182.108 304.468 48.4152 -182.376 304.803 49.1188 -182.516 304.729 
49.6774 -182.475 304.274 49.8774 -182.267 303.613 49.6426 -181.973 302.998 
49.0626 -181.705 302.663 48.3194 -181.742 302.677 47.765 -181.784 303.127 
47.5646 -181.998 303.78 47.7946 -182.301 304.386 48.3672 -182.578 304.713 
49.0637 -182.723 304.637 49.6181 -182.681 304.187 49.8186 -182.467 303.534 
49.5886 -182.164 302.928 49.0159 -181.887 302.601 48.2728 -181.938 302.605 
47.7225 -181.981 303.051 47.5219 -182.2 303.696 47.7477 -182.51 304.293 
48.3136 -182.794 304.614 49.0035 -182.942 304.537 49.5537 -182.898 304.091 
49.7543 -182.68 303.446 49.5285 -182.369 302.849 48.9626 -182.086 302.528 
48.2199 -182.152 302.523 47.6736 -182.197 302.965 47.4732 -182.419 303.602 
47.6952 -182.734 304.191 48.2549 -183.022 304.507 48.9384 -183.171 304.43 
49.4847 -183.127 303.988 49.6851 -182.904 303.351 49.4631 -182.589 302.761 
48.9034 -182.302 302.445 48.1615 -182.382 302.431 47.6191 -182.429 302.869 
47.419 -182.654 303.499 47.6377 -182.972 304.081 48.1916 -183.262 304.392 
48.8691 -183.412 304.314 49.4115 -183.366 303.877 49.6115 -183.14 303.247 
49.3929 -182.822 302.665 48.839 -182.533 302.353 48.0983 -182.627 302.331 
47.5598 -182.675 302.764 47.3602 -182.903 303.387 47.5758 -183.223 303.962 
48.1242 -183.514 304.269 48.796 -183.664 304.192 49.3345 -183.615 303.759 
49.5341 -183.388 303.136 49.3185 -183.067 302.561 48.7701 -182.777 302.253 
48.0312 -182.884 302.223 47.4965 -182.934 302.651 47.2975 -183.164 303.267 
47.5103 -183.486 303.835 48.0535 -183.776 304.139 48.7198 -183.925 304.062 
49.2545 -183.875 303.634 49.4535 -183.645 303.018 49.2407 -183.324 302.449 
48.6975 -183.033 302.146 47.9609 -183.153 302.107 47.4299 -183.205 302.53 
47.2316 -183.437 303.14 47.4417 -183.759 303.702 47.98 -184.049 304.003 
48.6408 -184.195 303.927 49.1718 -184.143 303.503 49.3702 -183.912 302.894 
49.16 -183.59 302.331 48.6217 -183.3 302.031 47.8879 -183.432 301.984 
47.3606 -183.487 302.403 47.163 -183.72 303.006 47.3707 -184.041 303.562 
47.9042 -184.33 303.86 48.5599 -184.474 303.785 49.0872 -184.42 303.366 
49.2848 -184.187 302.764 49.0771 -183.865 302.207 48.5436 -183.577 301.91 
47.8131 -183.721 301.856 47.2894 -183.777 302.27 47.0926 -184.011 302.866 
47.2979 -184.333 303.417 47.8269 -184.619 303.712 48.4775 -184.761 303.638 
49.0012 -184.704 303.225 49.198 -184.47 302.628 48.9926 -184.148 302.078 
48.4636 -183.862 301.783 47.737 -184.016 301.722 47.2169 -184.076 302.131 
47.0209 -184.311 302.721 47.2241 -184.631 303.266 47.7486 -184.915 303.559 
48.3943 -185.053 303.487 48.9144 -184.994 303.078 49.1103 -184.759 302.488 
48.9072 -184.438 301.943 48.3826 -184.155 301.651 47.6603 -184.319 301.584 
47.1437 -184.381 301.987 46.9487 -184.617 302.571 47.1497 -184.936 303.111 
47.67 -185.216 303.401 48.3108 -185.351 303.331 48.8274 -185.289 302.927 
49.0224 -185.053 302.344 48.8214 -184.734 301.804 48.3011 -184.454 301.514 
47.5837 -184.627 301.441 47.0706 -184.692 301.839 46.8765 -184.929 302.416 
47.0755 -185.246 302.951 47.5917 -185.523 303.24 48.2278 -185.654 303.172 
48.7409 -185.588 302.773 48.935 -185.352 302.196 48.736 -185.034 301.662 
48.2198 -184.757 301.373 47.5079 -184.939 301.295 46.9983 -185.008 301.688 
46.8051 -185.245 302.258 47.0022 -185.561 302.788 47.5143 -185.834 303.075 
48.1457 -185.96 303.009 48.6554 -185.891 302.616 48.8486 -185.653 302.046 
48.6515 -185.338 301.516 48.1394 -185.065 301.229 47.4335 -185.254 301.146 
46.9273 -185.327 301.533 46.735 -185.565 302.097 46.9303 -185.878 302.622 
47.4384 -186.147 302.907 48.0654 -186.268 302.844 48.5716 -186.195 302.457 
48.7639 -185.957 301.893 48.5686 -185.644 301.368 48.0605 -185.375 301.082 
47.3612 -185.572 300.994 46.8583 -185.648 301.376 46.667 -185.888 301.933 
46.8605 -186.198 302.453 47.3647 -186.462 302.737 47.9872 -186.578 302.677 
48.4902 -186.501 302.295 48.6814 -186.262 301.738 48.488 -185.951 301.218 
47.9837 -185.687 300.934 47.2916 -185.89 300.841 46.792 -185.971 301.216 
46.6017 -186.211 301.767 46.7934 -186.519 302.283 47.2939 -186.778 302.566 
47.912 -186.887 302.509 48.4116 -186.807 302.133 48.6019 -186.566 301.582 
48.4102 -186.258 301.066 47.9097 -186 300.783 47.2253 -186.209 300.686 
46.729 -186.294 301.056 46.5397 -186.535 301.6 46.7297 -186.841 302.111 
47.2265 -187.093 302.393 47.8403 -187.196 302.339 48.3367 -187.111 301.97 
48.526 -186.87 301.425 48.336 -186.564 300.914 47.8392 -186.312 300.632 
47.1631 -186.526 300.531 46.67 -186.616 300.894 46.4816 -186.859 301.432 
46.67 -187.161 301.938 47.1632 -187.407 302.22 47.7728 -187.504 302.17 
[...]
POINT_DATA 21320
SCALARS TubeRadius double
LOOKUP_TABLE default
1.35493 1.35493 1.35493 1.35493 1.35493 1.35493 1.35493 1.35493 1.35493 
1.35493 1.35493 1.35493 1.35493 1.35493 1.35493 1.35493 1.35493 1.35493 
1.35493 1.35493 1.34543 1.34543 1.34543 1.34543 1.34543 1.34543 1.34543 
1.34543 1.34543 1.34543 1.33595 1.33595 1.33595 1.33595 1.33595 1.33595 
1.33595 1.33595 1.33595 1.33595 1.32647 1.32647 1.32647 1.32647 1.32647 
1.32647 1.32647 1.32647 1.32647 1.32647 1.31701 1.31701 1.31701 1.31701 
1.31701 1.31701 1.31701 1.31701 1.31701 1.31701 1.30755 1.30755 1.30755 
1.30755 1.30755 1.30755 1.30755 1.30755 1.30755 1.30755 1.29811 1.29811 
1.29811 1.29811 1.29811 1.29811 1.29811 1.29811 1.29811 1.29811 1.28867 
1.28867 1.28867 1.28867 1.28867 1.28867 1.28867 1.28867 1.28867 1.28867 
1.27925 1.27925 1.27925 1.27925 1.27925 1.27925 1.27925 1.27925 1.27925 
1.27925 1.26983 1.26983 1.26983 1.26983 1.26983 1.26983 1.26983 1.26983 
1.26983 1.26983 1.26043 1.26043 1.26043 1.26043 1.26043 1.26043 1.26043 
1.26043 1.26043 1.26043 1.25104 1.25104 1.25104 1.25104 1.25104 1.25104 
1.25104 1.25104 1.25104 1.25104 1.24165 1.24165 1.24165 1.24165 1.24165 
1.24165 1.24165 1.24165 1.24165 1.24165 1.23228 1.23228 1.23228 1.23228 
1.23228 1.23228 1.23228 1.23228 1.23228 1.23228 1.22292 1.22292 1.22292 
1.22292 1.22292 1.22292 1.22292 1.22292 1.22292 1.22292 1.21357 1.21357 
1.21357 1.21357 1.21357 1.21357 1.21357 1.21357 1.21357 1.21357 1.20423 
1.20423 1.20423 1.20423 1.20423 1.20423 1.20423 1.20423 1.20423 1.20423 
1.1949 1.1949 1.1949 1.1949 1.1949 1.1949 1.1949 1.1949 1.1949 
1.1949 1.18559 1.18559 1.18559 1.18559 1.18559 1.18559 1.18559 1.18559 
1.18559 1.18559 1.17628 1.17628 1.17628 1.17628 1.17628 1.17628 1.17628 
1.17628 1.17628 1.17628 1.16699 1.16699 1.16699 1.16699 1.16699 1.16699 
1.16699 1.16699 1.16699 1.16699 1.15771 1.15771 1.15771 1.15771 1.15771 
1.15771 1.15771 1.15771 1.15771 1.15771 1.14844 1.14844 1.14844 1.14844 
1.14844 1.14844 1.14844 1.14844 1.14844 1.14844 1.13918 1.13918 1.13918 
1.13918 1.13918 1.13918 1.13918 1.13918 1.13918 1.13918 1.12994 1.12994 
1.12994 1.12994 1.12994 1.12994 1.12994 1.12994 1.12994 1.12994 1.1207 
1.1207 1.1207 1.1207 1.1207 1.1207 1.1207 1.1207 1.1207 1.1207 
1.11148 1.11148 1.11148 1.11148 1.11148 1.11148 1.11148 1.11148 1.11148 
1.11148 1.10228 1.10228 1.10228 1.10228 1.10228 1.10228 1.10228 1.10228 
1.10228 1.10228 1.09308 1.09308 1.09308 1.09308 1.09308 1.09308 1.09308 
1.09308 1.09308 1.09308 1.0839 1.0839 1.0839 1.0839 1.0839 1.0839 
1.0839 1.0839 1.0839 1.0839 1.07473 1.07473 1.07473 1.07473 1.07473 
1.07473 1.07473 1.07473 1.07473 1.07473 1.06557 1.06557 1.06557 1.06557 
1.06557 1.06557 1.06557 1.06557 1.06557 1.06557 1.05643 1.05643 1.05643 
1.05643 1.05643 1.05643 1.05643 1.05643 1.05643 1.05643 1.0473 1.0473 
1.0473 1.0473 1.0473 1.0473 1.0473 1.0473 1.0473 1.0473 1.03819 
1.03819 1.03819 1.03819 1.03819 1.03819 1.03819 1.03819 1.03819 1.03819 
1.02909 1.02909 1.02909 1.02909 1.02909 1.02909 1.02909 1.02909 1.02909 
1.02909 1.02 1.02 1.02 1.02 1.02 1.02 1.02 1.02 
1.02 1.02 1.01093 1.01093 1.01093 1.01093 1.01093 1.01093 1.01093 
1.01093 1.01093 1.01093 1.00187 1.00187 1.00187 1.00187 1.00187 1.00187 
1.00187 1.00187 1.00187 1.00187 0.992829 0.992829 0.992829 0.992829 0.992829 
0.992829 0.992829 0.992829 0.992829 0.992829 0.983801 0.983801 0.983801 0.983801 
0.983801 0.983801 0.983801 0.983801 0.983801 0.983801 0.974789 0.974789 0.974789 
0.974789 0.974789 0.974789 0.974789 0.974789 0.974789 0.974789 0.965792 0.965792 
0.965792 0.965792 0.965792 0.965792 0.965792 0.965792 0.965792 0.965792 0.956811 
0.956811 0.956811 0.956811 0.956811 0.956811 0.956811 0.956811 0.956811 0.956811 
0.947846 0.947846 0.947846 0.947846 0.947846 0.947846 0.947846 0.947846 0.947846 
0.947846 0.938897 0.938897 0.938897 0.938897 0.938897 0.938897 0.938897 0.938897 
0.938897 0.938897 0.929965 0.929965 0.929965 0.929965 0.929965 0.929965 0.929965 
0.929965 0.929965 0.929965 0.92105 0.92105 0.92105 0.92105 0.92105 0.92105 
0.92105 0.92105 0.92105 0.92105 0.912152 0.912152 0.912152 0.912152 0.912152 
0.912152 0.912152 0.912152 0.912152 0.912152 0.903271 0.903271 0.903271 0.903271 
0.903271 0.903271 0.903271 0.903271 0.903271 0.903271 0.894408 0.894408 0.894408 
0.894408 0.894408 0.894408 0.894408 0.894408 0.894408 0.894408 0.885563 0.885563 
0.885563 0.885563 0.885563 0.885563 0.885563 0.885563 0.885563 0.885563 0.876736 
0.876736 0.876736 0.876736 0.876736 0.876736 0.876736 0.876736 0.876736 0.876736 
0.867929 0.867929 0.867929 0.867929 0.867929 0.867929 0.867929 0.867929 0.867929 
0.867929 0.85914 0.85914 0.85914 0.85914 0.85914 0.85914 0.85914 0.85914 
0.85914 0.85914 0.850371 0.850371 0.850371 0.850371 0.850371 0.850371 0.850371 
0.850371 0.850371 0.850371 0.841622 0.841622 0.841622 0.841622 0.841622 0.841622 
0.841622 0.841622 0.841622 0.841622 0.832893 0.832893 0.832893 0.832893 0.832893 
0.832893 0.832893 0.832893 0.832893 0.832893 0.824184 0.824184 0.824184 0.824184 
0.824184 0.824184 0.824184 0.824184 0.824184 0.824184 0.815498 0.815498 0.815498 
0.815498 0.815498 0.815498 0.815498 0.815498 0.815498 0.815498 0.806832 0.806832 
0.806832 0.806832 0.806832 0.806832 0.806832 0.806832 0.806832 0.806832 0.798189 
0.798189 0.798189 0.798189 0.798189 0.798189 0.798189 0.798189 0.798189 0.798189 
0.789569 0.789569 0.789569 0.789569 0.789569 0.789569 0.789569 0.789569 0.789569 
0.789569 0.780972 0.780972 0.780972 0.780972 0.780972 0.780972 0.780972 0.780972 
0.780972 0.780972 0.772399 0.772399 0.772399 0.772399 0.772399 0.772399 0.772399 
0.772399 0.772399 0.772399 0.76385 0.76385 0.76385 0.76385 0.76385 0.76385 
0.76385 0.76385 0.76385 0.76385 0.755326 0.755326 0.755326 0.755326 0.755326 
0.755326 0.755326 0.755326 0.755326 0.755326 0.746828 0.746828 0.746828 0.746828 
0.746828 0.746828 0.746828 0.746828 0.746828 0.746828 0.738357 0.738357 0.738357 
0.738357 0.738357 0.738357 0.738357 0.738357 0.738357 0.738357 0.729913 0.729913 
0.729913 0.729913 0.729913 0.729913 0.729913 0.729913 0.729913 0.729913 0.721497 
0.721497 0.721497 0.721497 0.721497 0.721497 0.721497 0.721497 0.721497 0.721497 
0.71311 0.71311 0.71311 0.71311 0.71311 0.71311 0.71311 0.71311 0.71311 
0.71311 0.704753 0.704753 0.704753 0.704753 0.704753 0.704753 0.704753 0.704753 
0.704753 0.704753 0.696427 0.696427 0.696427 0.696427 0.696427 0.696427 0.696427 
0.696427 0.696427 0.696427 0.688133 0.688133 0.688133 0.688133 0.688133 0.688133 
0.688133 0.688133 0.688133 0.688133 0.679871 0.679871 0.679871 0.679871 0.679871 
0.679871 0.679871 0.679871 0.679871 0.679871 0.671645 0.671645 0.671645 0.671645 
0.671645 0.671645 0.671645 0.671645 0.671645 0.671645 0.663454 0.663454 0.663454 
0.663454 0.663454 0.663454 0.663454 0.663454 0.663454 0.663454 0.6553 0.6553 
0.6553 0.6553 0.6553 0.6553 0.6553 0.6553 0.6553 0.6553 0.647185 
0.647185 0.647185 0.647185 0.647185 0.647185 0.647185 0.647185 0.647185 0.647185 
0.63911 0.63911 0.63911 0.63911 0.63911 0.63911 0.63911 0.63911 0.63911 
0.63911 0.631078 0.631078 0.631078 0.631078 0.631078 0.631078 0.631078 0.631078 
0.631078 0.631078 0.62309 0.62309 0.62309 0.62309 0.62309 0.62309 0.62309 
0.62309 0.62309 0.62309 0.615149 0.615149 0.615149 0.615149 0.615149 0.615149 
0.615149 0.615149 0.615149 0.615149 0.607258 0.607258 0.607258 0.607258 0.607258 
0.607258 0.607258 0.607258 0.607258 0.607258 0.599419 0.599419 0.599419 0.599419 
0.599419 0.599419 0.599419 0.599419 0.599419 0.599419 0.591636 0.591636 0.591636 
0.591636 0.591636 0.591636 0.591636 0.591636 0.591636 0.591636 0.583913 0.583913 
0.583913 0.583913 0.583913 0.583913 0.583913 0.583913 0.583913 0.583913 0.576254 
0.576254 0.576254 0.576254 0.576254 0.576254 0.576254 0.576254 0.576254 0.576254 
0.568664 0.568664 0.568664 0.568664 0.568664 0.568664 0.568664 0.568664 0.568664 
0.568664 0.56115 0.56115 0.56115 0.56115 0.56115 0.56115 0.56115 0.56115 
0.56115 0.56115 0.553719 0.553719 0.553719 0.553719 0.553719 0.553719 0.553719 
0.553719 0.553719 0.553719 0.546381 0.546381 0.546381 0.546381 0.546381 0.546381 
0.546381 0.546381 0.546381 0.546381 0.539147 0.539147 0.539147 0.539147 0.539147 
0.539147 0.539147 0.539147 0.539147 0.539147 0.532033 0.532033 0.532033 0.532033 
0.532033 0.532033 0.532033 0.532033 0.532033 0.532033 0.525061 0.525061 0.525061 
0.525061 0.525061 0.525061 0.525061 0.525061 0.525061 0.525061 0.518263 0.518263 
0.518263 0.518263 0.518263 0.518263 0.518263 0.518263 0.518263 0.518263 0.511691 
0.511691 0.511691 0.511691 0.511691 0.511691 0.511691 0.511691 0.511691 0.511691 
0.505454 0.505454 0.505454 0.505454 0.505454 0.505454 0.505454 0.505454 0.505454 
0.505454 0.5 0.5 0.5 0.5 0.5 0.5 0.5 0.5 
0.5 0.5 2.89743 2.89743 2.89743 2.89743 2.89743 2.89743 2.89743 
2.89743 2.89743 2.89743 2.89743 2.89743 2.89743 2.89743 2.89743 2.89743 
2.89743 2.89743 2.89743 2.89743 2.88123 2.88123 2.88123 2.88123 2.88123 
2.88123 2.88123 2.88123 2.88123 2.88123 2.86504 2.86504 2.86504 2.86504 
2.86504 2.86504 2.86504 2.86504 2.86504 2.86504 2.84886 2.84886 2.84886 
2.84886 2.84886 2.84886 2.84886 2.84886 2.84886 2.84886 2.83269 2.83269 
2.83269 2.83269 2.83269 2.83269 2.83269 2.83269 2.83269 2.83269 2.81653 
2.81653 2.81653 2.81653 2.81653 2.81653 2.81653 2.81653 2.81653 2.81653 
2.80038 2.80038 2.80038 2.80038 2.80038 2.80038 2.80038 2.80038 2.80038 
2.80038 2.78424 2.78424 2.78424 2.78424 2.78424 2.78424 2.78424 2.78424 
2.78424 2.78424 2.76811 2.76811 2.76811 2.76811 2.76811 2.76811 2.76811 
2.76811 2.76811 2.76811 2.75199 2.75199 2.75199 2.75199 2.75199 2.75199 
2.75199 2.75199 2.75199 2.75199 2.73588 2.73588 2.73588 2.73588 2.73588 
2.73588 2.73588 2.73588 2.73588 2.73588 2.71978 2.71978 2.71978 2.71978 
2.71978 2.71978 2.71978 2.71978 2.71978 2.71978 2.7037 2.7037 2.7037 
2.7037 2.7037 2.7037 2.7037 2.7037 2.7037 2.7037 2.68762 2.68762 
2.68762 2.68762 2.68762 2.68762 2.68762 2.68762 2.68762 2.68762 2.67155 
2.67155 2.67155 2.67155 2.67155 2.67155 2.67155 2.67155 2.67155 2.67155 
2.6555 2.6555 2.6555 2.6555 2.6555 2.6555 2.6555 2.6555 2.6555 
2.6555 2.63946 2.63946 2.63946 2.63946 2.63946 2.63946 2.63946 2.63946 
2.63946 2.63946 2.62342 2.62342 2.62342 2.62342 2.62342 2.62342 2.62342 
2.62342 2.62342 2.62342 2.6074 2.6074 2.6074 2.6074 2.6074 2.6074 
2.6074 2.6074 2.6074 2.6074 2.59139 2.59139 2.59139 2.59139 2.59139 
2.59139 2.59139 2.59139 2.59139 2.59139 2.57539 2.57539 2.57539 2.57539 
2.57539 2.57539 2.57539 2.57539 2.57539 2.57539 2.5594 2.5594 2.5594 
2.5594 2.5594 2.5594 2.5594 2.5594 2.5594 2.5594 2.54342 2.54342 
2.54342 2.54342 2.54342 2.54342 2.54342 2.54342 2.54342 2.54342 2.52746 
2.52746 2.52746 2.52746 2.52746 2.52746 2.52746 2.52746 2.52746 2.52746 
2.5115 2.5115 2.5115 2.5115 2.5115 2.5115 2.5115 2.5115 2.5115 
2.5115 2.49556 2.49556 2.49556 2.49556 2.49556 2.49556 2.49556 2.49556 
2.49556 2.49556 2.47963 2.47963 2.47963 2.47963 2.47963 2.47963 2.47963 
2.47963 2.47963 2.47963 2.46371 2.46371 2.46371 2.46371 2.46371 2.46371 
2.46371 2.46371 2.46371 2.46371 2.4478 2.4478 2.4478 2.4478 2.4478 
2.4478 2.4478 2.4478 2.4478 2.4478 2.4319 2.4319 2.4319 2.4319 
2.4319 2.4319 2.4319 2.4319 2.4319 2.4319 2.41602 2.41602 2.41602 
2.41602 2.41602 2.41602 2.41602 2.41602 2.41602 2.41602 2.40015 2.40015 
2.40015 2.40015 2.40015 2.40015 2.40015 2.40015 2.40015 2.40015 2.38429 
2.38429 2.38429 2.38429 2.38429 2.38429 2.38429 2.38429 2.38429 2.38429 
2.36844 2.36844 2.36844 2.36844 2.36844 2.36844 2.36844 2.36844 2.36844 
2.36844 2.3526 2.3526 2.3526 2.3526 2.3526 2.3526 2.3526 2.3526 
2.3526 2.3526 2.33678 2.33678 2.33678 2.33678 2.33678 2.33678 2.33678 
2.33678 2.33678 2.33678 2.32097 2.32097 2.32097 2.32097 2.32097 2.32097 
2.32097 2.32097 2.32097 2.32097 2.30517 2.30517 2.30517 2.30517 2.30517 
2.30517 2.30517 2.30517 2.30517 2.30517 2.28938 2.28938 2.28938 2.28938 
2.28938 2.28938 2.28938 2.28938 2.28938 2.28938 2.27361 2.27361 2.27361 
2.27361 2.27361 2.27361 2.27361 2.27361 2.27361 2.27361 2.25785 2.25785 
2.25785 2.25785 2.25785 2.25785 2.25785 2.25785 2.25785 2.25785 2.2421 
2.2421 2.2421 2.2421 2.2421 2.2421 2.2421 2.2421 2.2421 2.2421 
2.22636 2.22636 2.22636 2.22636 2.22636 2.22636 2.22636 2.22636 2.22636 
2.22636 2.21064 2.21064 2.21064 2.21064 2.21064 2.21064 2.21064 2.21064 
2.21064 2.21064 2.19493 2.19493 2.19493 2.19493 2.19493 2.19493 2.19493 
2.19493 2.19493 2.19493 2.17924 2.17924 2.17924 2.17924 2.17924 2.17924 
2.17924 2.17924 2.17924 2.17924 2.16355 2.16355 2.16355 2.16355 2.16355 
2.16355 2.16355 2.16355 2.16355 2.16355 2.14788 2.14788 2.14788 2.14788 
2.14788 2.14788 2.14788 2.14788 2.14788 2.14788 2.13223 2.13223 2.13223 
2.13223 2.13223 2.13223 2.13223 2.13223 2.13223 2.13223 2.11659 2.11659 
2.11659 2.11659 2.11659 2.11659 2.11659 2.11659 2.11659 2.11659 2.10096 
2.10096 2.10096 2.10096 2.10096 2.10096 2.10096 2.10096 2.10096 2.10096 
2.08534 2.08534 2.08534 2.08534 2.08534 2.08534 2.08534 2.08534 2.08534 
2.08534 2.06974 2.06974 2.06974 2.06974 2.06974 2.06974 2.06974 2.06974 
2.06974 2.06974 2.05416 2.05416 2.05416 2.05416 2.05416 2.05416 2.05416 
2.05416 2.05416 2.05416 2.03859 2.03859 2.03859 2.03859 2.03859 2.03859 
2.03859 2.03859 2.03859 2.03859 2.02303 2.02303 2.02303 2.02303 2.02303 
2.02303 2.02303 2.02303 2.02303 2.02303 2.00748 2.00748 2.00748 2.00748 
2.00748 2.00748 2.00748 2.00748 2.00748 2.00748 1.99196 1.99196 1.99196 
1.99196 1.99196 1.99196 1.99196 1.99196 1.99196 1.99196 1.97644 1.97644 
1.97644 1.97644 1.97644 1.97644 1.97644 1.97644 1.97644 1.97644 1.96094 
1.96094 1.96094 1.96094 1.96094 1.96094 1.96094 1.96094 1.96094 1.96094 
1.94546 1.94546 1.94546 1.94546 1.94546 1.94546 1.94546 1.94546 1.94546 
1.94546 1.92999 1.92999 1.92999 1.92999 1.92999 1.92999 1.92999 1.92999 
1.92999 1.92999 1.91453 1.91453 1.91453 1.91453 1.91453 1.91453 1.91453 
1.91453 1.91453 1.91453 1.8991 1.8991 1.8991 1.8991 1.8991 1.8991 
1.8991 1.8991 1.8991 1.8991 1.88367 1.88367 1.88367 1.88367 1.88367 
1.88367 1.88367 1.88367 1.88367 1.88367 1.86826 1.86826 1.86826 1.86826 
1.86826 1.86826 1.86826 1.86826 1.86826 1.86826 1.85287 1.85287 1.85287 
1.85287 1.85287 1.85287 1.85287 1.85287 1.85287 1.85287 1.8375 1.8375 
1.8375 1.8375 1.8375 1.8375 1.8375 1.8375 1.8375 1.8375 1.82214 
1.82214 1.82214 1.82214 1.82214 1.82214 1.82214 1.82214 1.82214 1.82214 
1.80679 1.80679 1.80679 1.80679 1.80679 1.80679 1.80679 1.80679 1.80679 
1.80679 1.79147 1.79147 1.79147 1.79147 1.79147 1.79147 1.79147 1.79147 
1.79147 1.79147 1.77615 1.77615 1.77615 1.77615 1.77615 1.77615 1.77615 
1.77615 1.77615 1.77615 1.76086 1.76086 1.76086 1.76086 1.76086 1.76086 
1.76086 1.76086 1.76086 1.76086 1.74558 1.74558 1.74558 1.74558 1.74558 
1.74558 1.74558 1.74558 1.74558 1.74558 1.73032 1.73032 1.73032 1.73032 
1.73032 1.73032 1.73032 1.73032 1.73032 1.73032 1.71508 1.71508 1.71508 
1.71508 1.71508 1.71508 1.71508 1.71508 1.71508 1.71508 1.69985 1.69985 
1.69985 1.69985 1.69985 1.69985 1.69985 1.69985 1.69985 1.69985 1.68465 
1.68465 1.68465 1.68465 1.68465 1.68465 1.68465 1.68465 1.68465 1.68465 
1.66945 1.66945 1.66945 1.66945 1.66945 1.66945 1.66945 1.66945 1.66945 
1.66945 1.65428 1.65428 1.65428 1.65428 1.65428 1.65428 1.65428 1.65428 
1.65428 1.65428 1.63913 1.63913 1.63913 1.63913 1.63913 1.63913 1.63913 
1.63913 1.63913 1.63913 1.62399 1.62399 1.62399 1.62399 1.62399 1.62399 
1.62399 1.62399 1.62399 1.62399 1.60887 1.60887 1.60887 1.60887 1.60887 
1.60887 1.60887 1.60887 1.60887 1.60887 1.59377 1.59377 1.59377 1.59377 
1.59377 1.59377 1.59377 1.59377 1.59377 1.59377 1.57869 1.57869 1.57869 
1.57869 1.57869 1.57869 1.57869 1.57869 1.57869 1.57869 1.56363 1.56363 
1.56363 1.56363 1.56363 1.56363 1.56363 1.56363 1.56363 1.56363 1.54859 
1.54859 1.54859 1.54859 1.54859 1.54859 1.54859 1.54859 1.54859 1.54859 
1.53357 1.53357 1.53357 1.53357 1.53357 1.53357 1.53357 1.53357 1.53357 
1.53357 1.51857 1.51857 1.51857 1.51857 1.51857 1.51857 1.51857 1.51857 
1.51857 1.51857 1.50359 1.50359 1.50359 1.50359 1.50359 1.50359 1.50359 
1.50359 1.50359 1.50359 1.48862 1.48862 1.48862 1.48862 1.48862 1.48862 
1.48862 1.48862 1.48862 1.48862 1.47368 1.47368 1.47368 1.47368 1.47368 
1.47368 1.47368 1.47368 1.47368 1.47368 1.45876 1.45876 1.45876 1.45876 
1.45876 1.45876 1.45876 1.45876 1.45876 1.45876 1.44386 1.44386 1.44386 
1.44386 1.44386 1.44386 1.44386 1.44386 1.44386 1.44386 1.42899 1.42899 
1.42899 1.42899 1.42899 1.42899 1.42899 1.42899 1.42899 1.42899 1.41413 
1.41413 1.41413 1.41413 1.41413 1.41413 1.41413 1.41413 1.41413 1.41413 
1.39929 1.39929 1.39929 1.39929 1.39929 1.39929 1.39929 1.39929 1.39929 
1.39929 1.38448 1.38448 1.38448 1.38448 1.38448 1.38448 1.38448 1.38448 
1.38448 1.38448 1.36969 1.36969 1.36969 1.36969 1.36969 1.36969 1.36969 
1.36969 1.36969 1.36969 1.35493 1.35493 1.35493 1.35493 1.35493 1.35493 
1.35493 1.35493 1.35493 1.35493 0.988308 0.988308 0.988308 0.988308 0.988308 
0.988308 0.988308 0.988308 0.988308 0.988308 0.988308 0.988308 0.988308 0.988308 
0.988308 0.988308 0.988308 0.988308 0.988308 0.988308 0.986383 0.986383 0.986383 
0.986383 0.986383 0.986383 0.986383 0.986383 0.986383 0.986383 0.984459 0.984459 
0.984459 0.984459 0.984459 0.984459 0.984459 0.984459 0.984459 0.984459 0.982535 
0.982535 0.982535 0.982535 0.982535 0.982535 0.982535 0.982535 0.982535 0.982535 
0.980612 0.980612 0.980612 0.980612 0.980612 0.980612 0.980612 0.980612 0.980612 
0.980612 0.97869 0.97869 0.97869 0.97869 0.97869 0.97869 0.97869 0.97869 
0.97869 0.97869 0.976769 0.976769 0.976769 0.976769 0.976769 0.976769 0.976769 
0.976769 0.976769 0.976769 0.974848 0.974848 0.974848 0.974848 0.974848 0.974848 
0.974848 0.974848 0.974848 0.974848 0.972928 0.972928 0.972928 0.972928 0.972928 
0.972928 0.972928 0.972928 0.972928 0.972928 0.971009 0.971009 0.971009 0.971009 
0.971009 0.971009 0.971009 0.971009 0.971009 0.971009 0.96909 0.96909 0.96909 
0.96909 0.96909 0.96909 0.96909 0.96909 0.96909 0.96909 0.967172 0.967172 
0.967172 0.967172 0.967172 0.967172 0.967172 0.967172 0.967172 0.967172 0.965255 
0.965255 0.965255 0.965255 0.965255 0.965255 0.965255 0.965255 0.965255 0.965255 
0.963339 0.963339 0.963339 0.963339 0.963339 0.963339 0.963339 0.963339 0.963339 
0.963339 0.961423 0.961423 0.961423 0.961423 0.961423 0.961423 0.961423 0.961423 
0.961423 0.961423 0.959508 0.959508 0.959508 0.959508 0.959508 0.959508 0.959508 
0.959508 0.959508 0.959508 0.957594 0.957594 0.957594 0.957594 0.957594 0.957594 
0.957594 0.957594 0.957594 0.957594 0.95568 0.95568 0.95568 0.95568 0.95568 
0.95568 0.95568 0.95568 0.95568 0.95568 0.953768 0.953768 0.953768 0.953768 
0.953768 0.953768 0.953768 0.953768 0.953768 0.953768 0.951856 0.951856 0.951856 
0.951856 0.951856 0.951856 0.951856 0.951856 0.951856 0.951856 0.949944 0.949944 
0.949944 0.949944 0.949944 0.949944 0.949944 0.949944 0.949944 0.949944 0.948034 
0.948034 0.948034 0.948034 0.948034 0.948034 0.948034 0.948034 0.948034 0.948034 
0.946124 0.946124 0.946124 0.946124 0.946124 0.946124 0.946124 0.946124 0.946124 
0.946124 0.944215 0.944215 0.944215 0.944215 0.944215 0.944215 0.944215 0.944215 
0.944215 0.944215 0.942306 0.942306 0.942306 0.942306 0.942306 0.942306 0.942306 
0.942306 0.942306 0.942306 0.940399 0.940399 0.940399 0.940399 0.940399 0.940399 
0.940399 0.940399 0.940399 0.940399 0.938492 0.938492 0.938492 0.938492 0.938492 
0.938492 0.938492 0.938492 0.938492 0.938492 0.936586 0.936586 0.936586 0.936586 
0.936586 0.936586 0.936586 0.936586 0.936586 0.936586 0.93468 0.93468 0.93468 
0.93468 0.93468 0.93468 0.93468 0.93468 0.93468 0.93468 0.932776 0.932776 
0.932776 0.932776 0.932776 0.932776 0.932776 0.932776 0.932776 0.932776 0.930872 
0.930872 0.930872 0.930872 0.930872 0.930872 0.930872 0.930872 0.930872 0.930872 
0.928969 0.928969 0.928969 0.928969 0.928969 0.928969 0.928969 0.928969 0.928969 
0.928969 0.927067 0.927067 0.927067 0.927067 0.927067 0.927067 0.927067 0.927067 
0.927067 0.927067 0.925165 0.925165 0.925165 0.925165 0.925165 0.925165 0.925165 
0.925165 0.925165 0.925165 0.923264 0.923264 0.923264 0.923264 0.923264 0.923264 