# vtk DataFile Version 3.0
vtk output
ASCII
DATASET POLYDATA
POINTS 9840 float
60.6887 -193.345 305.54 60.303 -193.348 306.327 60.3952 -193.1 307.163 
60.9303 -192.696 307.728 61.7038 -192.292 307.807 62.4203 -192.04 307.369 
62.806 -192.037 306.582 62.7137 -192.285 305.746 62.1787 -192.688 305.181 
61.4052 -193.093 305.102 60.7889 -193.546 305.588 60.4013 -193.544 306.375 
60.4886 -193.287 307.208 61.0175 -192.871 307.77 61.786 -192.457 307.846 
62.5006 -192.201 307.408 62.8882 -192.202 306.621 62.8009 -192.46 305.788 
62.272 -192.875 305.226 61.5035 -193.29 305.15 60.8933 -193.735 305.643 
60.5026 -193.725 306.424 60.5782 -193.447 307.249 61.0913 -193.007 307.802 
61.8459 -192.572 307.872 62.5537 -192.309 307.433 62.9445 -192.319 306.652 
62.8688 -192.597 305.827 62.3557 -193.038 305.274 61.6011 -193.472 305.204 
60.9928 -193.902 305.698 60.5977 -193.882 306.474 60.6586 -193.58 307.288 
61.1523 -193.11 307.829 61.8901 -192.652 307.892 62.5903 -192.382 307.451 
62.9854 -192.401 306.676 62.9245 -192.704 305.862 62.4308 -193.173 305.32 
61.693 -193.631 305.257 61.0899 -194.052 305.755 60.6888 -194.02 306.523 
60.731 -193.689 307.324 61.2005 -193.185 307.851 61.9179 -192.7 307.903 
62.6092 -192.42 307.46 63.0104 -192.451 306.692 62.9682 -192.782 305.891 
62.4987 -193.287 305.364 61.7813 -193.772 305.312 61.1881 -194.189 305.815 
60.7784 -194.143 306.575 60.7965 -193.778 307.359 61.2355 -193.233 307.866 
61.9277 -192.717 307.904 62.6086 -192.426 307.458 63.0182 -192.472 306.698 
63.0001 -192.837 305.915 62.5611 -193.382 305.407 61.869 -193.898 305.369 
61.2912 -194.317 305.883 60.8695 -194.254 306.631 60.8561 -193.849 307.392 
61.2562 -193.258 307.874 61.9169 -192.705 307.893 62.5859 -192.403 307.442 
63.0076 -192.466 306.694 63.0209 -192.871 305.933 62.6209 -193.462 305.452 
61.9602 -194.015 305.432 61.4021 -194.436 305.961 60.9636 -194.353 306.694 
60.9098 -193.904 307.424 61.2614 -193.261 307.871 61.884 -192.67 307.866 
62.5398 -192.357 307.409 62.9783 -192.441 306.676 63.032 -192.889 305.946 
62.6805 -193.532 305.499 62.0579 -194.123 305.504 61.5183 -194.542 306.048 
61.0578 -194.437 306.761 60.9557 -193.943 307.452 61.2512 -193.25 307.857 
61.8312 -192.622 307.822 62.4743 -192.3 307.359 62.9348 -192.406 306.646 
63.0368 -192.899 305.955 62.7414 -193.592 305.55 62.1614 -194.22 305.586 
61.6225 -194.621 306.133 61.1353 -194.493 306.821 60.9842 -193.961 307.47 
61.227 -193.229 307.832 61.7708 -192.576 307.769 62.4081 -192.251 307.305 
62.8952 -192.379 306.617 63.0463 -192.911 305.969 62.8036 -193.644 305.607 
62.2597 -194.297 305.67 61.6607 -194.643 306.166 61.1487 -194.497 306.828 
60.9727 -193.949 307.453 61.2001 -193.209 307.802 61.744 -192.559 307.742 
62.3967 -192.248 307.296 62.9087 -192.395 306.634 63.0847 -192.943 306.01 
62.8572 -193.683 305.661 62.3134 -194.333 305.721 61.5312 -194.511 306.033 
61.0148 -194.362 306.686 60.889 -193.866 307.361 61.2018 -193.212 307.798 
61.8337 -192.65 307.831 62.5433 -192.395 307.447 63.0597 -192.543 306.793 
63.1855 -193.039 306.119 62.8728 -193.693 305.682 62.2408 -194.255 305.649 
61.3009 -194.047 305.761 60.805 -193.947 306.435 60.7814 -193.66 307.228 
61.2392 -193.298 307.836 62.0036 -192.997 308.028 62.7825 -192.873 307.729 
63.2784 -192.974 307.054 63.302 -193.26 306.261 62.8441 -193.623 305.653 
62.0798 -193.924 305.462 61.1951 -193.505 305.684 60.732 -193.486 306.385 
60.7697 -193.461 307.224 61.2935 -193.441 307.881 62.1036 -193.432 308.104 
62.8904 -193.439 307.809 63.3534 -193.458 307.108 63.3158 -193.483 306.269 
62.7919 -193.503 305.612 61.9819 -193.512 305.389 61.2098 -193.275 305.697 
60.7447 -193.316 306.392 60.7748 -193.424 307.222 61.2886 -193.558 307.87 
62.0899 -193.666 308.087 62.8725 -193.708 307.793 63.3376 -193.666 307.097 
63.3074 -193.558 306.268 62.7936 -193.424 305.62 61.9924 -193.316 305.402 
61.2162 -193.243 305.705 60.7494 -193.314 306.393 60.7746 -193.464 307.213 
61.2823 -193.635 307.853 62.0784 -193.763 308.067 62.859 -193.799 307.775 
63.3259 -193.728 307.087 63.3006 -193.578 306.266 62.793 -193.407 305.627 
61.9968 -193.279 305.412 61.2144 -193.29 305.7 60.7476 -193.375 306.382 
60.7717 -193.533 307.198 61.2776 -193.703 307.836 62.072 -193.82 308.052 
62.8515 -193.839 307.763 63.3183 -193.754 307.08 63.2942 -193.596 306.264 
62.7883 -193.427 305.627 61.9939 -193.31 305.411 61.2104 -193.375 305.688 
60.7445 -193.468 306.366 60.7688 -193.622 307.18 61.274 -193.777 307.818 
62.0671 -193.874 308.036 62.8452 -193.877 307.752 63.3111 -193.784 307.073 
63.2868 -193.63 306.26 62.7816 -193.475 305.622 61.9885 -193.377 305.403 
61.2068 -193.485 305.671 60.7423 -193.583 306.347 60.7669 -193.728 307.159 
61.2713 -193.866 307.798 62.0629 -193.943 308.019 62.8391 -193.93 307.739 
63.3036 -193.832 307.063 63.279 -193.687 306.251 62.7746 -193.55 305.612 
61.983 -193.473 305.391 61.2049 -193.62 305.652 60.7419 -193.72 306.324 
60.7668 -193.856 307.135 61.27 -193.975 307.775 62.0594 -194.033 307.999 
62.8334 -194.007 307.721 63.2964 -193.907 307.049 63.2715 -193.771 306.238 
62.7682 -193.651 305.599 61.9789 -193.593 305.375 61.2053 -193.778 305.63 
60.744 -193.88 306.3 60.7689 -194.008 307.109 61.2706 -194.111 307.749 
62.0574 -194.152 307.975 62.8288 -194.114 307.7 63.2902 -194.012 307.031 
63.2653 -193.885 306.221 62.7636 -193.781 305.582 61.9767 -193.741 305.356 
61.2086 -193.961 305.606 60.749 -194.065 306.273 60.7738 -194.186 307.08 
61.2737 -194.277 307.72 62.0577 -194.304 307.947 62.8263 -194.256 307.675 
63.286 -194.152 307.008 63.2611 -194.031 306.201 62.7612 -193.94 305.561 
61.9773 -193.913 305.334 61.2148 -194.165 305.58 60.7568 -194.272 306.244 
60.7816 -194.39 307.048 61.2795 -194.473 307.687 62.0605 -194.49 307.914 
62.8262 -194.434 307.645 63.2842 -194.326 306.981 63.2595 -194.208 306.176 
62.7615 -194.125 305.538 61.9805 -194.108 305.31 61.2239 -194.389 305.551 
60.7677 -194.502 306.211 60.7924 -194.62 307.013 61.2884 -194.697 307.65 
62.0664 -194.706 307.878 62.8291 -194.641 307.611 63.2853 -194.529 306.95 
63.2606 -194.411 306.148 62.7646 -194.333 305.511 61.9866 -194.325 305.283 
61.236 -194.634 305.518 60.7817 -194.753 306.175 60.8064 -194.872 306.974 
61.3005 -194.946 307.609 62.0754 -194.947 307.837 62.8351 -194.875 307.572 
63.2894 -194.757 306.915 63.2647 -194.638 306.116 62.7706 -194.564 305.481 
61.9957 -194.562 305.253 61.2514 -194.898 305.482 60.7991 -195.023 306.136 
60.8238 -195.145 306.931 61.316 -195.217 307.564 62.0878 -195.212 307.792 
62.8444 -195.132 307.529 63.2967 -195.007 306.875 63.272 -194.885 306.08 
62.7797 -194.813 305.447 62.0079 -194.818 305.219 61.2702 -195.179 305.441 
60.82 -195.311 306.092 60.8448 -195.437 306.883 61.3352 -195.508 307.514 
62.1039 -195.497 307.743 62.8573 -195.409 307.482 63.3075 -195.277 306.831 
63.2826 -195.151 306.04 62.7922 -195.08 305.409 62.0235 -195.091 305.18 
61.2926 -195.474 305.397 60.8446 -195.615 306.043 60.8697 -195.745 306.831 
61.3583 -195.815 307.46 62.1239 -195.799 307.688 62.8739 -195.703 307.43 
63.3219 -195.563 306.783 63.2968 -195.432 305.995 62.8082 -195.362 305.367 
62.0426 -195.378 305.138 61.3188 -195.782 305.348 60.8732 -195.932 305.99 
60.8987 -196.068 306.774 61.3856 -196.138 307.4 62.1479 -196.117 307.629 
62.8945 -196.011 307.373 63.3401 -195.862 306.731 63.3147 -195.726 305.947 
62.8278 -195.655 305.321 62.0654 -195.677 305.092 61.3491 -196.101 305.294 
60.9059 -196.26 305.932 60.9319 -196.402 306.712 61.4171 -196.474 307.336 
62.1762 -196.447 307.565 62.9192 -196.332 307.312 63.3624 -196.173 306.673 
63.3364 -196.03 305.893 62.8512 -195.959 305.27 62.0921 -195.986 305.041 
61.3834 -196.427 305.235 60.943 -196.597 305.869 60.9697 -196.747 306.645 
61.4533 -196.82 307.266 62.2091 -196.787 307.495 62.9484 -196.662 307.245 
63.3888 -196.492 306.611 63.3621 -196.342 305.835 62.8785 -196.269 305.214 
62.1227 -196.301 304.985 61.4222 -196.758 305.172 60.9848 -196.94 305.801 
61.0124 -197.099 306.572 61.4944 -197.174 307.19 62.2468 -197.136 307.419 
62.9822 -196.999 307.173 63.4196 -196.817 306.544 63.392 -196.658 305.773 
62.9099 -196.584 305.154 62.1575 -196.622 304.925 61.4655 -197.093 305.103 
61.0314 -197.288 305.727 61.0601 -197.457 306.492 61.5407 -197.533 307.108 
62.2896 -197.489 307.338 63.0207 -197.341 307.095 63.4548 -197.146 306.471 
63.4261 -196.977 305.705 62.9455 -196.901 305.09 62.1966 -196.945 304.86 
61.5135 -197.428 305.029 61.083 -197.638 305.647 61.1132 -197.818 306.407 
61.5924 -197.897 307.02 62.3377 -197.847 307.25 63.0643 -197.685 307.011 
63.4948 -197.475 306.393 63.4646 -197.296 305.633 62.9853 -197.216 305.02 
62.2401 -197.267 304.79 61.5663 -197.761 304.949 61.14 -197.988 305.56 
61.172 -198.18 306.315 61.6501 -198.262 306.924 62.3915 -198.205 307.156 
63.1132 -198.029 306.921 63.5395 -197.803 306.31 63.5075 -197.611 305.556 
63.0294 -197.528 304.946 62.288 -197.586 304.715 61.6241 -198.09 304.864 
61.2027 -198.336 305.468 61.237 -198.541 306.215 61.714 -198.627 306.821 
62.4514 -198.563 307.054 63.1676 -198.371 306.825 63.5891 -198.126 306.221 
63.5548 -197.921 305.473 63.0778 -197.834 304.867 62.3404 -197.899 304.635 
61.6871 -198.413 304.773 61.2712 -198.678 305.368 61.3085 -198.899 306.108 
61.7846 -198.99 306.71 62.5177 -198.917 306.945 63.2279 -198.708 306.722 
63.6438 -198.442 306.127 63.6065 -198.221 305.387 63.1304 -198.13 304.784 
62.3973 -198.203 304.55 61.7553 -198.725 304.676 61.346 -199.014 305.261 
61.3869 -199.252 305.993 61.8625 -199.349 306.591 62.591 -199.267 306.828 
63.2942 -199.037 306.612 63.7035 -198.749 306.027 63.6626 -198.511 305.295 
63.187 -198.414 304.697 62.4585 -198.496 304.46 61.8288 -199.026 304.573 
61.4274 -199.341 305.147 61.4731 -199.599 305.868 61.9484 -199.701 306.462 
62.6718 -199.609 306.701 63.3669 -199.358 306.495 63.7684 -199.043 305.921 
63.7227 -198.785 305.2 63.2474 -198.683 304.606 62.524 -198.775 304.367 
61.9077 -199.312 304.465 61.5159 -199.656 305.024 61.5676 -199.936 305.734 
62.0431 -200.046 306.322 62.7608 -199.943 306.565 63.4465 -199.666 306.37 
[...]
POINT_DATA 9840
SCALARS TubeRadius double
LOOKUP_TABLE default
1.41834 1.41834 1.41834 1.41834 1.41834 1.41834 1.41834 1.41834 1.41834 
1.41834 1.41834 1.41834 1.41834 1.41834 1.41834 1.41834 1.41834 1.41834 
1.41834 1.41834 1.41341 1.41341 1.41341 1.41341 1.41341 1.41341 1.41341 
1.41341 1.41341 1.41341 1.40848 1.40848 1.40848 1.40848 1.40848 1.40848 
1.40848 1.40848 1.40848 1.40848 1.40357 1.40357 1.40357 1.40357 1.40357 
1.40357 1.40357 1.40357 1.40357 1.40357 1.39866 1.39866 1.39866 1.39866 
1.39866 1.39866 1.39866 1.39866 1.39866 1.39866 1.39376 1.39376 1.39376 
1.39376 1.39376 1.39376 1.39376 1.39376 1.39376 1.39376 1.38888 1.38888 
1.38888 1.38888 1.38888 1.38888 1.38888 1.38888 1.38888 1.38888 1.384 
1.384 1.384 1.384 1.384 1.384 1.384 1.384 1.384 1.384 
1.37913 1.37913 1.37913 1.37913 1.37913 1.37913 1.37913 1.37913 1.37913 
1.37913 1.37427 1.37427 1.37427 1.37427 1.37427 1.37427 1.37427 1.37427 
1.37427 1.37427 1.36941 1.36941 1.36941 1.36941 1.36941 1.36941 1.36941 
1.36941 1.36941 1.36941 1.36457 1.36457 1.36457 1.36457 1.36457 1.36457 
1.36457 1.36457 1.36457 1.36457 1.35973 1.35973 1.35973 1.35973 1.35973 
1.35973 1.35973 1.35973 1.35973 1.35973 1.35491 1.35491 1.35491 1.35491 
1.35491 1.35491 1.35491 1.35491 1.35491 1.35491 1.35009 1.35009 1.35009 
1.35009 1.35009 1.35009 1.35009 1.35009 1.35009 1.35009 1.34529 1.34529 
1.34529 1.34529 1.34529 1.34529 1.34529 1.34529 1.34529 1.34529 1.34049 
1.34049 1.34049 1.34049 1.34049 1.34049 1.34049 1.34049 1.34049 1.34049 
1.3357 1.3357 1.3357 1.3357 1.3357 1.3357 1.3357 1.3357 1.3357 
1.3357 1.33092 1.33092 1.33092 1.33092 1.33092 1.33092 1.33092 1.33092 
1.33092 1.33092 1.32615 1.32615 1.32615 1.32615 1.32615 1.32615 1.32615 
1.32615 1.32615 1.32615 1.32139 1.32139 1.32139 1.32139 1.32139 1.32139 
1.32139 1.32139 1.32139 1.32139 1.31663 1.31663 1.31663 1.31663 1.31663 
1.31663 1.31663 1.31663 1.31663 1.31663 1.31189 1.31189 1.31189 1.31189 
1.31189 1.31189 1.31189 1.31189 1.31189 1.31189 1.30716 1.30716 1.30716 
1.30716 1.30716 1.30716 1.30716 1.30716 1.30716 1.30716 1.30243 1.30243 
1.30243 1.30243 1.30243 1.30243 1.30243 1.30243 1.30243 1.30243 1.29772 
1.29772 1.29772 1.29772 1.29772 1.29772 1.29772 1.29772 1.29772 1.29772 
1.29301 1.29301 1.29301 1.29301 1.29301 1.29301 1.29301 1.29301 1.29301 
1.29301 1.28831 1.28831 1.28831 1.28831 1.28831 1.28831 1.28831 1.28831 
1.28831 1.28831 1.28362 1.28362 1.28362 1.28362 1.28362 1.28362 1.28362 
1.28362 1.28362 1.28362 1.27895 1.27895 1.27895 1.27895 1.27895 1.27895 
1.27895 1.27895 1.27895 1.27895 1.27428 1.27428 1.27428 1.27428 1.27428 
1.27428 1.27428 1.27428 1.27428 1.27428 1.26962 1.26962 1.26962 1.26962 
1.26962 1.26962 1.26962 1.26962 1.26962 1.26962 1.26497 1.26497 1.26497 
1.26497 1.26497 1.26497 1.26497 1.26497 1.26497 1.26497 1.26033 1.26033 
1.26033 1.26033 1.26033 1.26033 1.26033 1.26033 1.26033 1.26033 1.2557 
1.2557 1.2557 1.2557 1.2557 1.2557 1.2557 1.2557 1.2557 1.2557 
1.25107 1.25107 1.25107 1.25107 1.25107 1.25107 1.25107 1.25107 1.25107 
1.25107 1.24646 1.24646 1.24646 1.24646 1.24646 1.24646 1.24646 1.24646 
1.24646 1.24646 1.24186 1.24186 1.24186 1.24186 1.24186 1.24186 1.24186 
1.24186 1.24186 1.24186 1.23726 1.23726 1.23726 1.23726 1.23726 1.23726 
1.23726 1.23726 1.23726 1.23726 1.23268 1.23268 1.23268 1.23268 1.23268 
1.23268 1.23268 1.23268 1.23268 1.23268 1.22811 1.22811 1.22811 1.22811 
1.22811 1.22811 1.22811 1.22811 1.22811 1.22811 1.22354 1.22354 1.22354 
1.22354 1.22354 1.22354 1.22354 1.22354 1.22354 1.22354 1.21899 1.21899 
1.21899 1.21899 1.21899 1.21899 1.21899 1.21899 1.21899 1.21899 1.21444 
1.21444 1.21444 1.21444 1.21444 1.21444 1.21444 1.21444 1.21444 1.21444 
1.2099 1.2099 1.2099 1.2099 1.2099 1.2099 1.2099 1.2099 1.2099 
1.2099 1.20538 1.20538 1.20538 1.20538 1.20538 1.20538 1.20538 1.20538 
1.20538 1.20538 1.20086 1.20086 1.20086 1.20086 1.20086 1.20086 1.20086 
1.20086 1.20086 1.20086 1.19635 1.19635 1.19635 1.19635 1.19635 1.19635 
1.19635 1.19635 1.19635 1.19635 1.19186 1.19186 1.19186 1.19186 1.19186 
1.19186 1.19186 1.19186 1.19186 1.19186 1.18737 1.18737 1.18737 1.18737 
1.18737 1.18737 1.18737 1.18737 1.18737 1.18737 1.18289 1.18289 1.18289 
1.18289 1.18289 1.18289 1.18289 1.18289 1.18289 1.18289 1.17842 1.17842 
1.17842 1.17842 1.17842 1.17842 1.17842 1.17842 1.17842 1.17842 1.17396 
1.17396 1.17396 1.17396 1.17396 1.17396 1.17396 1.17396 1.17396 1.17396 
1.16951 1.16951 1.16951 1.16951 1.16951 1.16951 1.16951 1.16951 1.16951 
1.16951 1.16508 1.16508 1.16508 1.16508 1.16508 1.16508 1.16508 1.16508 
1.16508 1.16508 1.16065 1.16065 1.16065 1.16065 1.16065 1.16065 1.16065 
1.16065 1.16065 1.16065 1.15623 1.15623 1.15623 1.15623 1.15623 1.15623 
1.15623 1.15623 1.15623 1.15623 1.15182 1.15182 1.15182 1.15182 1.15182 
1.15182 1.15182 1.15182 1.15182 1.15182 1.14742 1.14742 1.14742 1.14742 
1.14742 1.14742 1.14742 1.14742 1.14742 1.14742 1.14303 1.14303 1.14303 
1.14303 1.14303 1.14303 1.14303 1.14303 1.14303 1.14303 1.13865 1.13865 
1.13865 1.13865 1.13865 1.13865 1.13865 1.13865 1.13865 1.13865 1.13428 
1.13428 1.13428 1.13428 1.13428 1.13428 1.13428 1.13428 1.13428 1.13428 
1.12992 1.12992 1.12992 1.12992 1.12992 1.12992 1.12992 1.12992 1.12992 
1.12992 1.12557 1.12557 1.12557 1.12557 1.12557 1.12557 1.12557 1.12557 
1.12557 1.12557 1.12123 1.12123 1.12123 1.12123 1.12123 1.12123 1.12123 
1.12123 1.12123 1.12123 1.1169 1.1169 1.1169 1.1169 1.1169 1.1169 
1.1169 1.1169 1.1169 1.1169 1.11259 1.11259 1.11259 1.11259 1.11259 
1.11259 1.11259 1.11259 1.11259 1.11259 1.10828 1.10828 1.10828 1.10828 
1.10828 1.10828 1.10828 1.10828 1.10828 1.10828 1.10398 1.10398 1.10398 
1.10398 1.10398 1.10398 1.10398 1.10398 1.10398 1.10398 1.09969 1.09969 
1.09969 1.09969 1.09969 1.09969 1.09969 1.09969 1.09969 1.09969 1.09541 
1.09541 1.09541 1.09541 1.09541 1.09541 1.09541 1.09541 1.09541 1.09541 
1.09114 1.09114 1.09114 1.09114 1.09114 1.09114 1.09114 1.09114 1.09114 
1.09114 1.08688 1.08688 1.08688 1.08688 1.08688 1.08688 1.08688 1.08688 
1.08688 1.08688 1.08264 1.08264 1.08264 1.08264 1.08264 1.08264 1.08264 
1.08264 1.08264 1.08264 1.0784 1.0784 1.0784 1.0784 1.0784 1.0784 
1.0784 1.0784 1.0784 1.0784 1.07417 1.07417 1.07417 1.07417 1.07417 
1.07417 1.07417 1.07417 1.07417 1.07417 1.06996 1.06996 1.06996 1.06996 
1.06996 1.06996 1.06996 1.06996 1.06996 1.06996 1.06575 1.06575 1.06575 
1.06575 1.06575 1.06575 1.06575 1.06575 1.06575 1.06575 1.06155 1.06155 
1.06155 1.06155 1.06155 1.06155 1.06155 1.06155 1.06155 1.06155 1.05737 
1.05737 1.05737 1.05737 1.05737 1.05737 1.05737 1.05737 1.05737 1.05737 
1.05319 1.05319 1.05319 1.05319 1.05319 1.05319 1.05319 1.05319 1.05319 
1.05319 1.04903 1.04903 1.04903 1.04903 1.04903 1.04903 1.04903 1.04903 
1.04903 1.04903 1.04487 1.04487 1.04487 1.04487 1.04487 1.04487 1.04487 
1.04487 1.04487 1.04487 1.04073 1.04073 1.04073 1.04073 1.04073 1.04073 
1.04073 1.04073 1.04073 1.04073 1.0366 1.0366 1.0366 1.0366 1.0366 
1.0366 1.0366 1.0366 1.0366 1.0366 1.03248 1.03248 1.03248 1.03248 
1.03248 1.03248 1.03248 1.03248 1.03248 1.03248 1.02836 1.02836 1.02836 
1.02836 1.02836 1.02836 1.02836 1.02836 1.02836 1.02836 1.02426 1.02426 
1.02426 1.02426 1.02426 1.02426 1.02426 1.02426 1.02426 1.02426 1.02017 
1.02017 1.02017 1.02017 1.02017 1.02017 1.02017 1.02017 1.02017 1.02017 
1.01609 1.01609 1.01609 1.01609 1.01609 1.01609 1.01609 1.01609 1.01609 
1.01609 1.01202 1.01202 1.01202 1.01202 1.01202 1.01202 1.01202 1.01202 
1.01202 1.01202 1.00797 1.00797 1.00797 1.00797 1.00797 1.00797 1.00797 
1.00797 1.00797 1.00797 1.00392 1.00392 1.00392 1.00392 1.00392 1.00392 
1.00392 1.00392 1.00392 1.00392 0.999881 0.999881 0.999881 0.999881 0.999881 
0.999881 0.999881 0.999881 0.999881 0.999881 0.995855 0.995855 0.995855 0.995855 
0.995855 0.995855 0.995855 0.995855 0.995855 0.995855 0.99184 0.99184 0.99184 
0.99184 0.99184 0.99184 0.99184 0.99184 0.99184 0.99184 0.987836 0.987836 
0.987836 0.987836 0.987836 0.987836 0.987836 0.987836 0.987836 0.987836 0.983843 
0.983843 0.983843 0.983843 0.983843 0.983843 0.983843 0.983843 0.983843 0.983843 
0.979861 0.979861 0.979861 0.979861 0.979861 0.979861 0.979861 0.979861 0.979861 
0.979861 0.97589 0.97589 0.97589 0.97589 0.97589 0.97589 0.97589 0.97589 
0.97589 0.97589 0.971929 0.971929 0.971929 0.971929 0.971929 0.971929 0.971929 
0.971929 0.971929 0.971929 0.96798 0.96798 0.96798 0.96798 0.96798 0.96798 
0.96798 0.96798 0.96798 0.96798 0.964042 0.964042 0.964042 0.964042 0.964042 
0.964042 0.964042 0.964042 0.964042 0.964042 0.960115 0.960115 0.960115 0.960115 
0.960115 0.960115 0.960115 0.960115 0.960115 0.960115 0.956199 0.956199 0.956199 
0.956199 0.956199 0.956199 0.956199 0.956199 0.956199 0.956199 0.952295 0.952295 
0.952295 0.952295 0.952295 0.952295 0.952295 0.952295 0.952295 0.952295 0.948401 
0.948401 0.948401 0.948401 0.948401 0.948401 0.948401 0.948401 0.948401 0.948401 
0.944519 0.944519 0.944519 0.944519 0.944519 0.944519 0.944519 0.944519 0.944519 
0.944519 0.940648 0.940648 0.940648 0.940648 0.940648 0.940648 0.940648 0.940648 
0.940648 0.940648 0.936788 0.936788 0.936788 0.936788 0.936788 0.936788 0.936788 
0.936788 0.936788 0.936788 0.93294 0.93294 0.93294 0.93294 0.93294 0.93294 
0.93294 0.93294 0.93294 0.93294 0.929103 0.929103 0.929103 0.929103 0.929103 
0.929103 0.929103 0.929103 0.929103 0.929103 0.925277 0.925277 0.925277 0.925277 
0.925277 0.925277 0.925277 0.925277 0.925277 0.925277 0.921463 0.921463 0.921463 
0.921463 0.921463 0.921463 0.921463 0.921463 0.921463 0.921463 0.91766 0.91766 
0.91766 0.91766 0.91766 0.91766 0.91766 0.91766 0.91766 0.91766 0.913869 
0.913869 0.913869 0.913869 0.913869 0.913869 0.913869 0.913869 0.913869 0.913869 
0.91009 0.91009 0.91009 0.91009 0.91009 0.91009 0.91009 0.91009 0.91009 
0.91009 0.906322 0.906322 0.906322 0.906322 0.906322 0.906322 0.906322 0.906322 
0.906322 0.906322 0.902565 0.902565 0.902565 0.902565 0.902565 0.902565 0.902565 
0.902565 0.902565 0.902565 0.89882 0.89882 0.89882 0.89882 0.89882 0.89882 
0.89882 0.89882 0.89882 0.89882 0.895087 0.895087 0.895087 0.895087 0.895087 
0.895087 0.895087 0.895087 0.895087 0.895087 0.891366 0.891366 0.891366 0.891366 
0.891366 0.891366 0.891366 0.891366 0.891366 0.891366 0.887656 0.887656 0.887656 
0.887656 0.887656 0.887656 0.887656 0.887656 0.887656 0.887656 0.883959 0.883959 
0.883959 0.883959 0.883959 0.883959 0.883959 0.883959 0.883959 0.883959 0.880273 
0.880273 0.880273 0.880273 0.880273 0.880273 0.880273 0.880273 0.880273 0.880273 
0.876598 0.876598 0.876598 0.876598 0.876598 0.876598 0.876598 0.876598 0.876598 
0.876598 0.872936 0.872936 0.872936 0.872936 0.872936 0.872936 0.872936 0.872936 
0.872936 0.872936 0.869286 0.869286 0.869286 0.869286 0.869286 0.869286 0.869286 
0.869286 0.869286 0.869286 0.865648 0.865648 0.865648 0.865648 0.865648 0.865648 
0.865648 0.865648 0.865648 0.865648 0.862021 0.862021 0.862021 0.862021 0.862021 
0.862021 0.862021 0.862021 0.862021 0.862021 0.858407 0.858407 0.858407 0.858407 
0.858407 0.858407 0.858407 0.858407 0.858407 0.858407 0.854805 0.854805 0.854805 
0.854805 0.854805 0.854805 0.854805 0.854805 0.854805 0.854805 0.851215 0.851215 
0.851215 0.851215 0.851215 0.851215 0.851215 0.851215 0.851215 0.851215 0.847638 
0.847638 0.847638 0.847638 0.847638 0.847638 0.847638 0.847638 0.847638 0.847638 
0.844072 0.844072 0.844072 0.844072 0.844072 0.844072 0.844072 0.844072 0.844072 
0.844072 0.840519 0.840519 0.840519 0.840519 0.840519 0.840519 0.840519 0.840519 
0.840519 0.840519 0.836978 0.836978 0.836978 0.836978 0.836978 0.836978 0.836978 
0.836978 0.836978 0.836978 0.833449 0.833449 0.833449 0.833449 0.833449 0.833449 
0.833449 0.833449 0.833449 0.833449 0.829933 0.829933 0.829933 0.829933 0.829933 
0.829933 0.829933 0.829933 0.829933 0.829933 0.82643 0.82643 0.82643 0.82643 
0.82643 0.82643 0.82643 0.82643 0.82643 0.82643 0.822938 0.822938 0.822938 
0.822938 0.822938 0.822938 0.822938 0.822938 0.822938 0.822938 0.81946 0.81946 
0.81946 0.81946 0.81946 0.81946 0.81946 0.81946 0.81946 0.81946 0.815994 
0.815994 0.815994 0.815994 0.815994 0.815994 0.815994 0.815994 0.815994 0.815994 
0.81254 0.81254 0.81254 0.81254 0.81254 0.81254 0.81254 0.81254 0.81254 
0.81254 0.809099 0.809099 0.809099 0.809099 0.809099 0.809099 0.809099 0.809099 
0.809099 0.809099 0.805671 0.805671 0.805671 0.805671 0.805671 0.805671 0.805671 
0.805671 0.805671 0.805671 0.802256 0.802256 0.802256 0.802256 0.802256 0.802256 
0.802256 0.802256 0.802256 0.802256 0.798854 0.798854 0.798854 0.798854 0.798854 
0.798854 0.798854 0.798854 0.798854 0.798854 0.795464 0.795464 0.795464 0.795464 
0.795464 0.795464 0.795464 0.795464 0.795464 0.795464 0.792087 0.792087 0.792087 
0.792087 0.792087 0.792087 0.792087 0.792087 0.792087 0.792087 0.788723 0.788723 
0.788723 0.788723 0.788723 0.788723 0.788723 0.788723 0.788723 0.788723 0.785373 
0.785373 0.785373 0.785373 0.785373 0.785373 0.785373 0.785373 0.785373 0.785373 
0.782035 0.782035 0.782035 0.782035 0.782035 0.782035 0.782035 0.782035 0.782035 
0.782035 0.77871 0.77871 0.77871 0.77871 0.77871 0.77871 0.77871 0.77871 
0.77871 0.77871 0.775399 0.775399 0.775399 0.775399 0.775399 0.775399 0.775399 
0.775399 0.775399 0.775399 0.772101 0.772101 0.772101 0.772101 0.772101 0.772101 
0.772101 0.772101 0.772101 0.772101 0.768816 0.768816 0.768816 0.768816 0.768816 
0.768816 0.768816 0.768816 0.768816 0.768816 0.765544 0.765544 0.765544 0.765544 
0.765544 0.765544 0.765544 0.765544 0.765544 0.765544 0.762286 0.762286 0.762286 
0.762286 0.762286 0.762286 0.762286 0.762286 0.762286 0.762286 0.759041 0.759041 
0.759041 0.759041 0.759041 0.759041 0.759041 0.759041 0.759041 0.759041 0.75581 
0.75581 0.75581 0.75581 0.75581 0.75581 0.75581 0.75581 0.75581 0.75581 
0.752593 0.752593 0.752593 0.752593 0.752593 0.752593 0.752593 0.752593 0.752593 
0.752593 0.749388 0.749388 0.749388 0.749388 0.749388 0.749388 0.749388 0.749388 
0.749388 0.749388 0.746198 0.746198 0.746198 0.746198 0.746198 0.746198 0.746198 
0.746198 0.746198 0.746198 0.743021 0.743021 0.743021 0.743021 0.743021 0.743021 
0.743021 0.743021 0.743021 0.743021 0.739858 0.739858 0.739858 0.739858 0.739858 
0.739858 0.739858 0.739858 0.739858 0.739858 0.736709 0.736709 0.736709 0.736709 
0.736709 0.736709 0.736709 0.736709 0.736709 0.736709 0.733574 0.733574 0.733574 
0.733574 0.733574 0.733574 0.733574 0.733574 0.733574 0.733574 0.730453 0.730453 
0.730453 0.730453 0.730453 0.730453 0.730453 0.730453 0.730453 0.730453 0.727346 
0.727346 0.727346 0.727346 0.727346 0.727346 0.727346 0.727346 0.727346 0.727346 
0.724252 0.724252 0.724252 0.724252 0.724252 0.724252 0.724252 0.724252 0.724252 
0.724252 0.721174 0.721174 0.721174 0.721174 0.721174 0.721174 0.721174 0.721174 
0.721174 0.721174 0.718109 0.718109 0.718109 0.718109 0.718109 0.718109 0.718109 
0.718109 0.718109 0.718109 0.715058 0.715058 0.715058 0.715058 0.715058 0.715058 
0.715058 0.715058 0.715058 0.715058 0.712022 0.712022 0.712022 0.712022 0.712022 
0.712022 0.712022 0.712022 0.712022 0.712022 0.709001 0.709001 0.709001 0.709001 
0.709001 0.709001 0.709001 0.709001 0.709001 0.709001 0.705993 0.705993 0.705993 
0.705993 0.705993 0.705993 0.705993 0.705993 0.705993 0.705993 0.703001 0.703001 
0.703001 0.703001 0.703001 0.703001 0.703001 0.703001 0.703001 0.703001 0.700023 
0.700023 0.700023 0.700023 0.700023 0.700023 0.700023 0.700023 0.700023 0.700023 
0.69706 0.69706 0.69706 0.69706 0.69706 0.69706 0.69706 0.69706 0.69706 
0.69706 0.694111 0.694111 0.694111 0.694111 0.694111 0.694111 0.694111 0.694111 
0.694111 0.694111 0.691177 0.691177 0.691177 0.691177 0.691177 0.691177 0.691177 
0.691177 0.691177 0.691177 0.688259 0.688259 0.688259 0.688259 0.688259 0.688259 
0.688259 0.688259 0.688259 0.688259 0.685355 0.685355 0.685355 0.685355 0.685355 
0.685355 0.685355 0.685355 0.685355 0.685355 0.682466 0.682466 0.682466 0.682466 
0.682466 0.682466 0.682466 0.682466 0.682466 0.682466 0.679593 0.679593 0.679593 
0.679593 0.679593 0.679593 0.679593 0.679593 0.679593 0.679593 0.676735 0.676735 
0.676735 0.676735 0.676735 0.676735 0.676735 0.676735 0.676735 0.676735 0.673892 
0.673892 0.673892 0.673892 0.673892 0.673892 0.673892 0.673892 0.673892 0.673892 
0.671064 0.671064 0.671064 0.671064 0.671064 0.671064 0.671064 0.671064 0.671064 
0.671064 0.668252 0.668252 0.668252 0.668252 0.668252 0.668252 0.668252 0.668252 
0.668252 0.668252 0.665456 0.665456 0.665456 0.665456 0.665456 0.665456 0.665456 
0.665456 0.665456 0.665456 0.662675 0.662675 0.662675 0.662675 0.662675 0.662675 
0.662675 0.662675 0.662675 0.662675 0.65991 0.65991 0.65991 0.65991 0.65991 
0.65991 0.65991 0.65991 0.65991 0.65991 0.657161 0.657161 0.657161 0.657161 
0.657161 0.657161 0.657161 0.657161 0.657161 0.657161 0.654428 0.654428 0.654428 
0.654428 0.654428 0.654428 0.654428 0.654428 0.654428 0.654428 0.651711 0.651711 
0.651711 0.651711 0.651711 0.651711 0.651711 0.651711 0.651711 0.651711 0.64901 
0.64901 0.64901 0.64901 0.64901 0.64901 0.64901 0.64901 0.64901 0.64901 
0.646325 0.646325 0.646325 0.646325 0.646325 0.646325 0.646325 0.646325 0.646325 
0.646325 0.643656 0.643656 0.643656 0.643656 0.643656 0.643656 0.643656 0.643656 
0.643656 0.643656 0.641004 0.641004 0.641004 0.641004 0.641004 0.641004 0.641004 
0.641004 0.641004 0.641004 0.638369 0.638369 0.638369 0.638369 0.638369 0.638369 
0.638369 0.638369 0.638369 0.638369 0.63575 0.63575 0.63575 0.63575 0.63575 
0.63575 0.63575 0.63575 0.63575 0.63575 0.633148 0.633148 0.633148 0.633148 
0.633148 0.633148 0.633148 0.633148 0.633148 0.633148 0.630562 0.630562 0.630562 
0.630562 0.630562 0.630562 0.630562 0.630562 0.630562 0.630562 0.627994 0.627994 
0.627994 0.627994 0.627994 0.627994 0.627994 0.627994 0.627994 0.627994 0.625443 
0.625443 0.625443 0.625443 0.625443 0.625443 0.625443 0.625443 0.625443 0.625443 
0.622908 0.622908 0.622908 0.622908 0.622908 0.622908 0.622908 0.622908 0.622908 
0.622908 0.620392 0.620392 0.620392 0.620392 0.620392 0.620392 0.620392 0.620392 
0.620392 0.620392 0.617892 0.617892 0.617892 0.617892 0.617892 0.617892 0.617892 
0.617892 0.617892 0.617892 0.61541 0.61541 0.61541 0.61541 0.61541 0.61541 
0.61541 0.61541 0.61541 0.61541 0.612946 0.612946 0.612946 0.612946 0.612946 
0.612946 0.612946 0.612946 0.612946 0.612946 0.6105 0.6105 0.6105 0.6105 
0.6105 0.6105 0.6105 0.6105 0.6105 0.6105 0.608071 0.608071 0.608071 
0.608071 0.608071 0.608071 0.608071 0.608071 0.608071 0.608071 0.605661 0.605661 
0.605661 0.605661 0.605661 0.605661 0.605661 0.605661 0.605661 0.605661 0.603268 
0.603268 0.603268 0.603268 0.603268 0.603268 0.603268 0.603268 0.603268 0.603268 
0.600894 0.600894 0.600894 0.600894 0.600894 0.600894 0.600894 0.600894 0.600894 
0.600894 0.598539 0.598539 0.598539 0.598539 0.598539 0.598539 0.598539 0.598539 
0.598539 0.598539 0.596202 0.596202 0.596202 0.596202 0.596202 0.596202 0.596202 
0.596202 0.596202 0.596202 0.593884 0.593884 0.593884 0.593884 0.593884 0.593884 
0.593884 0.593884 0.593884 0.593884 0.591585 0.591585 0.591585 0.591585 0.591585 
0.591585 0.591585 0.591585 0.591585 0.591585 0.589305 0.589305 0.589305 0.589305 
0.589305 0.589305 0.589305 0.589305 0.589305 0.589305 0.587044 0.587044 0.587044 
0.587044 0.587044 0.587044 0.587044 0.587044 0.587044 0.587044 0.584803 0.584803 
0.584803 0.584803 0.584803 0.584803 0.584803 0.584803 0.584803 0.584803 0.582581 
0.582581 0.582581 0.582581 0.582581 0.582581 0.582581 0.582581 0.582581 0.582581 
0.580379 0.580379 0.580379 0.580379 0.580379 0.580379 0.580379 0.580379 0.580379 
0.580379 0.578197 0.578197 0.578197 0.578197 0.578197 0.578197 0.578197 0.578197 
0.578197 0.578197 0.576035 0.576035 0.576035 0.576035 0.576035 0.576035 0.576035 
0.576035 0.576035 0.576035 0.573893 0.573893 0.573893 0.573893 0.573893 0.573893 
0.573893 0.573893 0.573893 0.573893 0.571772 0.571772 0.571772 0.571772 0.571772 
0.571772 0.571772 0.571772 0.571772 0.571772 0.569671 0.569671 0.569671 0.569671 
0.569671 0.569671 0.569671 0.569671 0.569671 0.569671 0.567591 0.567591 0.567591 