# vtk DataFile Version 3.0
vtk output
ASCII
DATASET POLYDATA
POINTS 6450 float
-26.4394 -222.747 272.776 -25.9685 -223.484 273.012 -25.1512 -223.873 272.979 
-24.2997 -223.765 272.69 -23.7393 -223.201 272.255 -23.684 -222.398 271.841 
-24.1549 -221.661 271.606 -24.9722 -221.272 271.639 -25.8237 -221.38 271.927 
-26.3841 -221.944 272.362 -26.4943 -222.846 272.577 -26.0223 -223.581 272.816 
-25.2021 -223.964 272.794 -24.3471 -223.85 272.518 -23.7839 -223.281 272.094 
-23.7275 -222.476 271.684 -24.1996 -221.741 271.445 -25.0197 -221.358 271.467 
-25.8747 -221.472 271.743 -26.4379 -222.04 272.167 -26.5371 -222.945 272.369 
-26.0651 -223.673 272.616 -25.2436 -224.044 272.615 -24.3863 -223.918 272.366 
-23.8208 -223.342 271.964 -23.7629 -222.537 271.563 -24.2349 -221.809 271.316 
-25.0564 -221.438 271.317 -25.9137 -221.564 271.566 -26.4793 -222.14 271.968 
-26.5691 -223.035 272.178 -26.0973 -223.754 272.434 -25.2754 -224.115 272.453 
-24.4172 -223.978 272.228 -23.8506 -223.396 271.845 -23.792 -222.592 271.45 
-24.2638 -221.872 271.195 -25.0858 -221.512 271.176 -25.944 -221.649 271.401 
-26.5105 -222.231 271.784 -26.592 -223.115 272.006 -26.1205 -223.826 272.271 
-25.2991 -224.176 272.308 -24.4414 -224.031 272.104 -23.8751 -223.446 271.736 
-23.8165 -222.644 271.344 -24.288 -221.933 271.079 -25.1095 -221.583 271.042 
-25.9672 -221.728 271.247 -26.5334 -222.313 271.615 -26.6075 -223.185 271.856 
-26.1365 -223.888 272.131 -25.3164 -224.229 272.184 -24.4605 -224.077 271.994 
-23.8958 -223.492 271.634 -23.8379 -222.695 271.241 -24.3089 -221.993 270.966 
-25.129 -221.652 270.913 -25.9849 -221.803 271.103 -26.5496 -222.389 271.463 
-26.6174 -223.245 271.729 -26.1468 -223.938 272.016 -25.3289 -224.272 272.08 
-24.4761 -224.119 271.897 -23.9141 -223.536 271.536 -23.8575 -222.748 271.137 
-24.3281 -222.055 270.85 -25.146 -221.721 270.787 -25.9988 -221.874 270.97 
-26.5608 -222.456 271.33 -26.623 -223.293 271.631 -26.153 -223.977 271.929 
-25.3381 -224.306 271.999 -24.4896 -224.155 271.812 -23.9316 -223.582 271.441 
-23.8773 -222.806 271.027 -24.3474 -222.122 270.729 -25.1623 -221.793 270.659 
-26.0108 -221.943 270.846 -26.5687 -222.516 271.217 -26.6254 -223.327 271.564 
-26.1556 -224 271.875 -25.3446 -224.329 271.942 -24.5023 -224.189 271.739 
-23.9504 -223.632 271.344 -23.8996 -222.873 270.907 -24.3694 -222.2 270.596 
-25.1804 -221.87 270.529 -26.0227 -222.011 270.732 -26.5746 -222.567 271.128 
-26.6237 -223.343 271.533 -26.1537 -224.004 271.857 -25.3484 -224.339 271.912 
-24.5155 -224.219 271.677 -23.973 -223.69 271.241 -23.9283 -222.955 270.772 
-24.3983 -222.293 270.448 -25.2036 -221.959 270.393 -26.0365 -222.079 270.628 
-26.579 -222.607 271.064 -26.6153 -223.337 271.539 -26.1443 -223.986 271.875 
-25.3479 -224.334 271.908 -24.5302 -224.248 271.624 -24.0037 -223.761 271.132 
-23.9693 -223.058 270.62 -24.4403 -222.409 270.283 -25.2368 -222.061 270.251 
-26.0544 -222.147 270.535 -26.581 -222.634 271.027 -26.5949 -223.303 271.578 
-26.1221 -223.94 271.925 -25.3402 -224.312 271.925 -24.548 -224.277 271.577 
-24.048 -223.849 271.015 -24.0312 -223.19 270.453 -24.5041 -222.554 270.105 
-25.2859 -222.182 270.106 -26.0782 -222.216 270.453 -26.5782 -222.645 271.016 
-26.5569 -223.243 271.639 -26.0816 -223.868 271.994 -25.323 -224.275 271.955 
-24.5708 -224.309 271.535 -24.1124 -223.956 270.896 -24.1228 -223.352 270.282 
-24.5982 -222.727 269.926 -25.3568 -222.32 269.966 -26.109 -222.286 270.385 
-26.5674 -222.639 271.024 -26.5007 -223.165 271.704 -26.023 -223.78 272.064 
-25.2977 -224.231 271.984 -24.6016 -224.346 271.496 -24.2006 -224.081 270.786 
-24.2481 -223.537 270.124 -24.7257 -222.922 269.764 -25.4511 -222.471 269.843 
-26.1472 -222.356 270.331 -26.5481 -222.621 271.042 -26.4348 -223.086 271.754 
-25.9563 -223.694 272.115 -25.2722 -224.193 272.003 -24.6438 -224.392 271.46 
-24.3112 -224.215 270.694 -24.4014 -223.73 269.996 -24.88 -223.122 269.635 
-25.5641 -222.623 269.747 -26.1924 -222.424 270.29 -26.525 -222.601 271.057 
-26.3749 -223.025 271.782 -25.8976 -223.629 272.143 -25.258 -224.172 272.007 
-24.7004 -224.447 271.427 -24.4379 -224.349 270.625 -24.5707 -223.915 269.906 
-25.048 -223.311 269.546 -25.6876 -222.768 269.681 -26.2452 -222.493 270.261 
-26.5077 -222.591 271.063 -26.3358 -222.991 271.791 -25.8619 -223.594 272.15 
-25.265 -224.174 272 -24.7731 -224.512 271.4 -24.5742 -224.477 270.579 
-24.7442 -224.084 269.849 -25.2181 -223.481 269.491 -25.815 -222.9 269.64 
-26.3069 -222.563 270.24 -26.5058 -222.598 271.062 -26.3269 -222.989 271.788 
-25.8581 -223.591 272.145 -25.2989 -224.201 271.988 -24.8628 -224.586 271.379 
-24.7165 -224.599 270.55 -24.9157 -224.234 269.817 -25.3845 -223.632 269.461 
-25.9438 -223.022 269.617 -26.3799 -222.637 270.226 -26.5262 -222.624 271.056 
-26.3514 -223.015 271.781 -25.8889 -223.617 272.135 -25.3612 -224.249 271.976 
-24.9701 -224.668 271.365 -24.8647 -224.715 270.534 -25.0855 -224.372 269.802 
-25.548 -223.769 269.448 -26.0756 -223.137 269.607 -26.4668 -222.718 270.219 
-26.5721 -222.671 271.049 -26.4091 -223.066 271.774 -25.9535 -223.669 272.126 
-25.4518 -224.317 271.966 -25.0957 -224.76 271.356 -25.0212 -224.831 270.528 
-25.2567 -224.501 269.799 -25.7123 -223.898 269.446 -26.214 -223.25 269.606 
-26.5701 -222.807 270.216 -26.6447 -222.736 271.044 -26.4993 -223.138 271.769 
-26.0503 -223.743 272.12 -25.5692 -224.401 271.961 -25.2399 -224.861 271.353 
-25.1881 -224.948 270.529 -25.4335 -224.629 269.803 -25.8825 -224.024 269.452 
-26.3635 -223.366 269.611 -26.6929 -222.906 270.219 -26.7447 -222.819 271.043 
-26.6204 -223.231 271.768 -26.1753 -223.833 272.117 -25.709 -224.497 271.96 
-25.3996 -224.969 271.355 -25.3652 -225.068 270.536 -25.619 -224.757 269.813 
-26.0641 -224.154 269.464 -26.5304 -223.49 269.622 -26.8399 -223.019 270.226 
-26.8742 -222.92 271.046 -26.7679 -223.34 271.772 -26.3225 -223.938 272.119 
-25.8649 -224.604 271.963 -25.57 -225.082 271.362 -25.5504 -225.191 270.547 
-25.8135 -224.889 269.829 -26.259 -224.291 269.482 -26.7166 -223.625 269.638 
-27.0115 -223.147 270.239 -27.0311 -223.038 271.054 -26.9362 -223.464 271.782 
-26.4867 -224.055 272.127 -26.0333 -224.718 271.971 -25.7492 -225.201 271.374 
-25.7429 -225.319 270.564 -26.0168 -225.027 269.85 -26.4662 -224.436 269.505 
-26.9196 -223.772 269.661 -27.2038 -223.289 270.258 -27.2101 -223.171 271.068 
-27.1207 -223.599 271.797 -26.6642 -224.181 272.14 -26.2114 -224.841 271.984 
-25.9354 -225.326 271.391 -25.9415 -225.452 270.586 -26.2274 -225.17 269.877 
-26.6839 -224.589 269.534 -27.1367 -223.929 269.689 -27.4127 -223.444 270.283 
-27.4066 -223.318 271.088 -27.3174 -223.747 271.819 -26.8511 -224.317 272.158 
-26.396 -224.97 272.003 -26.126 -225.457 271.413 -26.1442 -225.591 270.613 
-26.4436 -225.321 269.91 -26.9099 -224.751 269.57 -27.3649 -224.098 269.725 
-27.6349 -223.611 270.315 -27.6168 -223.477 271.115 -27.5226 -223.904 271.847 
-27.0441 -224.461 272.182 -26.5842 -225.106 272.027 -26.3186 -225.592 271.44 
-26.3487 -225.735 270.647 -26.663 -225.478 269.949 -27.1415 -224.922 269.613 
-27.6014 -224.277 269.769 -27.8671 -223.79 270.355 -27.837 -223.648 271.149 
-27.7331 -224.071 271.883 -27.2399 -224.612 272.213 -26.7729 -225.247 272.057 
-26.5103 -225.732 271.473 -26.5525 -225.883 270.685 -26.8833 -225.642 269.994 
-27.3765 -225.101 269.664 -27.8435 -224.467 269.82 -28.1061 -223.981 270.404 
-28.0639 -223.83 271.191 -27.9454 -224.248 271.925 -27.4352 -224.77 272.25 
-26.9588 -225.392 272.092 -26.6981 -225.876 271.511 -26.7528 -226.037 270.73 
-27.1018 -225.813 270.047 -27.612 -225.29 269.722 -28.0884 -224.668 269.88 
-28.3491 -224.184 270.461 -28.2945 -224.024 271.242 -28.1565 -224.433 271.976 
-27.6269 -224.934 272.293 -27.139 -225.541 272.132 -26.8792 -226.022 271.554 
-26.9468 -226.193 270.781 -27.3158 -225.989 270.106 -27.8455 -225.487 269.789 
-28.3334 -224.88 269.95 -28.5931 -224.399 270.528 -28.5256 -224.228 271.302 
-28.3633 -224.626 272.035 -27.8118 -225.103 272.343 -27.3104 -225.693 272.178 
-27.0506 -226.17 271.603 -27.1316 -226.353 270.837 -27.5226 -226.171 270.173 
-28.0741 -225.694 269.865 -28.5755 -225.104 270.03 -28.8353 -224.627 270.605 
-28.7542 -224.444 271.371 -28.5626 -224.827 272.103 -27.9868 -225.275 272.4 
-27.4699 -225.844 272.229 -27.2093 -226.317 271.656 -27.3045 -226.514 270.899 
-27.7192 -226.358 270.247 -28.295 -225.91 269.95 -28.8119 -225.34 270.121 
-29.0726 -224.867 270.694 -28.9773 -224.671 271.451 -28.7516 -225.036 272.18 
-28.1493 -225.45 272.463 -27.615 -225.995 272.284 -27.3527 -226.463 271.712 
-27.4627 -226.674 270.966 -27.9029 -226.549 270.329 -28.5052 -226.135 270.046 
-29.0395 -225.59 270.225 -29.3017 -225.122 270.797 -29.1918 -224.91 271.543 
-28.9269 -225.252 272.266 -28.2963 -225.627 272.532 -27.7432 -226.143 272.343 
-27.4787 -226.604 271.772 -27.6039 -226.834 271.037 -28.071 -226.744 270.419 
-28.7015 -226.369 270.153 -29.2547 -225.853 270.342 -29.5192 -225.392 270.913 
-29.394 -225.162 271.648 -29.0854 -225.476 272.363 -28.4256 -225.804 272.607 
-27.8527 -226.287 272.405 -27.5855 -226.74 271.834 -27.7261 -226.991 271.113 
-28.2207 -226.942 270.517 -28.8805 -226.614 270.273 -29.4535 -226.131 270.475 
-29.7207 -225.678 271.046 -29.5801 -225.427 271.767 -29.224 -225.706 272.471 
-28.5352 -225.981 272.688 -27.9425 -226.425 272.468 -27.6722 -226.869 271.897 
-27.8277 -227.143 271.192 -28.3495 -227.143 270.622 -29.0383 -226.869 270.406 
-29.631 -226.425 270.625 -29.9013 -225.981 271.197 -29.7458 -225.706 271.902 
-29.3389 -225.944 272.591 -28.6234 -226.156 272.774 -28.0123 -226.555 272.533 
-27.7392 -226.988 271.96 -27.9083 -227.29 271.273 -28.455 -227.346 270.736 
-29.1706 -227.133 270.553 -29.7817 -226.734 270.794 -30.0548 -226.301 271.367 
-29.8857 -225.999 272.053 -29.4267 -226.188 272.722 -28.6892 -226.33 272.865 
-28.0631 -226.679 272.598 -27.7875 -227.099 272.022 -27.9678 -227.432 271.357 
-28.535 -227.55 270.858 -29.2725 -227.407 270.715 -29.8987 -227.059 270.982 
-30.1742 -226.638 271.558 -29.9939 -226.306 272.223 -29.4835 -226.438 272.866 
[...]
POINT_DATA 6450
SCALARS TubeRadius double
LOOKUP_TABLE default
1.46532 1.46532 1.46532 1.46532 1.46532 1.46532 1.46532 1.46532 1.46532 
1.46532 1.46532 1.46532 1.46532 1.46532 1.46532 1.46532 1.46532 1.46532 
1.46532 1.46532 1.45885 1.45885 1.45885 1.45885 1.45885 1.45885 1.45885 
1.45885 1.45885 1.45885 1.45239 1.45239 1.45239 1.45239 1.45239 1.45239 
1.45239 1.45239 1.45239 1.45239 1.44594 1.44594 1.44594 1.44594 1.44594 
1.44594 1.44594 1.44594 1.44594 1.44594 1.43949 1.43949 1.43949 1.43949 
1.43949 1.43949 1.43949 1.43949 1.43949 1.43949 1.43306 1.43306 1.43306 
1.43306 1.43306 1.43306 1.43306 1.43306 1.43306 1.43306 1.42662 1.42662 
1.42662 1.42662 1.42662 1.42662 1.42662 1.42662 1.42662 1.42662 1.4202 
1.4202 1.4202 1.4202 1.4202 1.4202 1.4202 1.4202 1.4202 1.4202 
1.41378 1.41378 1.41378 1.41378 1.41378 1.41378 1.41378 1.41378 1.41378 
1.41378 1.40738 1.40738 1.40738 1.40738 1.40738 1.40738 1.40738 1.40738 
1.40738 1.40738 1.40097 1.40097 1.40097 1.40097 1.40097 1.40097 1.40097 
1.40097 1.40097 1.40097 1.39458 1.39458 1.39458 1.39458 1.39458 1.39458 
1.39458 1.39458 1.39458 1.39458 1.3882 1.3882 1.3882 1.3882 1.3882 
1.3882 1.3882 1.3882 1.3882 1.3882 1.38182 1.38182 1.38182 1.38182 
1.38182 1.38182 1.38182 1.38182 1.38182 1.38182 1.37545 1.37545 1.37545 
1.37545 1.37545 1.37545 1.37545 1.37545 1.37545 1.37545 1.36908 1.36908 
1.36908 1.36908 1.36908 1.36908 1.36908 1.36908 1.36908 1.36908 1.36273 
1.36273 1.36273 1.36273 1.36273 1.36273 1.36273 1.36273 1.36273 1.36273 
1.35638 1.35638 1.35638 1.35638 1.35638 1.35638 1.35638 1.35638 1.35638 
1.35638 1.35004 1.35004 1.35004 1.35004 1.35004 1.35004 1.35004 1.35004 
1.35004 1.35004 1.34371 1.34371 1.34371 1.34371 1.34371 1.34371 1.34371 
1.34371 1.34371 1.34371 1.33738 1.33738 1.33738 1.33738 1.33738 1.33738 
1.33738 1.33738 1.33738 1.33738 1.33107 1.33107 1.33107 1.33107 1.33107 
1.33107 1.33107 1.33107 1.33107 1.33107 1.32476 1.32476 1.32476 1.32476 
1.32476 1.32476 1.32476 1.32476 1.32476 1.32476 1.31846 1.31846 1.31846 
1.31846 1.31846 1.31846 1.31846 1.31846 1.31846 1.31846 1.31217 1.31217 
1.31217 1.31217 1.31217 1.31217 1.31217 1.31217 1.31217 1.31217 1.30589 
1.30589 1.30589 1.30589 1.30589 1.30589 1.30589 1.30589 1.30589 1.30589 
1.29961 1.29961 1.29961 1.29961 1.29961 1.29961 1.29961 1.29961 1.29961 
1.29961 1.29334 1.29334 1.29334 1.29334 1.29334 1.29334 1.29334 1.29334 
1.29334 1.29334 1.28708 1.28708 1.28708 1.28708 1.28708 1.28708 1.28708 
1.28708 1.28708 1.28708 1.28083 1.28083 1.28083 1.28083 1.28083 1.28083 
1.28083 1.28083 1.28083 1.28083 1.27459 1.27459 1.27459 1.27459 1.27459 
1.27459 1.27459 1.27459 1.27459 1.27459 1.26836 1.26836 1.26836 1.26836 
1.26836 1.26836 1.26836 1.26836 1.26836 1.26836 1.26213 1.26213 1.26213 
1.26213 1.26213 1.26213 1.26213 1.26213 1.26213 1.26213 1.25591 1.25591 
1.25591 1.25591 1.25591 1.25591 1.25591 1.25591 1.25591 1.25591 1.2497 
1.2497 1.2497 1.2497 1.2497 1.2497 1.2497 1.2497 1.2497 1.2497 
1.2435 1.2435 1.2435 1.2435 1.2435 1.2435 1.2435 1.2435 1.2435 
1.2435 1.23731 1.23731 1.23731 1.23731 1.23731 1.23731 1.23731 1.23731 
1.23731 1.23731 1.23113 1.23113 1.23113 1.23113 1.23113 1.23113 1.23113 
1.23113 1.23113 1.23113 1.22496 1.22496 1.22496 1.22496 1.22496 1.22496 
1.22496 1.22496 1.22496 1.22496 1.21879 1.21879 1.21879 1.21879 1.21879 
1.21879 1.21879 1.21879 1.21879 1.21879 1.21263 1.21263 1.21263 1.21263 
1.21263 1.21263 1.21263 1.21263 1.21263 1.21263 1.20649 1.20649 1.20649 
1.20649 1.20649 1.20649 1.20649 1.20649 1.20649 1.20649 1.20035 1.20035 
1.20035 1.20035 1.20035 1.20035 1.20035 1.20035 1.20035 1.20035 1.19422 
1.19422 1.19422 1.19422 1.19422 1.19422 1.19422 1.19422 1.19422 1.19422 
1.1881 1.1881 1.1881 1.1881 1.1881 1.1881 1.1881 1.1881 1.1881 
1.1881 1.18198 1.18198 1.18198 1.18198 1.18198 1.18198 1.18198 1.18198 
1.18198 1.18198 1.17588 1.17588 1.17588 1.17588 1.17588 1.17588 1.17588 
1.17588 1.17588 1.17588 1.16979 1.16979 1.16979 1.16979 1.16979 1.16979 
1.16979 1.16979 1.16979 1.16979 1.1637 1.1637 1.1637 1.1637 1.1637 
1.1637 1.1637 1.1637 1.1637 1.1637 1.15763 1.15763 1.15763 1.15763 
1.15763 1.15763 1.15763 1.15763 1.15763 1.15763 1.15156 1.15156 1.15156 
1.15156 1.15156 1.15156 1.15156 1.15156 1.15156 1.15156 1.14551 1.14551 
1.14551 1.14551 1.14551 1.14551 1.14551 1.14551 1.14551 1.14551 1.13946 
1.13946 1.13946 1.13946 1.13946 1.13946 1.13946 1.13946 1.13946 1.13946 
1.13342 1.13342 1.13342 1.13342 1.13342 1.13342 1.13342 1.13342 1.13342 
1.13342 1.12739 1.12739 1.12739 1.12739 1.12739 1.12739 1.12739 1.12739 
1.12739 1.12739 1.12138 1.12138 1.12138 1.12138 1.12138 1.12138 1.12138 
1.12138 1.12138 1.12138 1.11537 1.11537 1.11537 1.11537 1.11537 1.11537 
1.11537 1.11537 1.11537 1.11537 1.10937 1.10937 1.10937 1.10937 1.10937 
1.10937 1.10937 1.10937 1.10937 1.10937 1.10338 1.10338 1.10338 1.10338 
1.10338 1.10338 1.10338 1.10338 1.10338 1.10338 1.0974 1.0974 1.0974 
1.0974 1.0974 1.0974 1.0974 1.0974 1.0974 1.0974 1.09143 1.09143 
1.09143 1.09143 1.09143 1.09143 1.09143 1.09143 1.09143 1.09143 1.08547 
1.08547 1.08547 1.08547 1.08547 1.08547 1.08547 1.08547 1.08547 1.08547 
1.07952 1.07952 1.07952 1.07952 1.07952 1.07952 1.07952 1.07952 1.07952 
1.07952 1.07359 1.07359 1.07359 1.07359 1.07359 1.07359 1.07359 1.07359 
1.07359 1.07359 1.06766 1.06766 1.06766 1.06766 1.06766 1.06766 1.06766 
1.06766 1.06766 1.06766 1.06174 1.06174 1.06174 1.06174 1.06174 1.06174 
1.06174 1.06174 1.06174 1.06174 1.05583 1.05583 1.05583 1.05583 1.05583 
1.05583 1.05583 1.05583 1.05583 1.05583 1.04993 1.04993 1.04993 1.04993 
1.04993 1.04993 1.04993 1.04993 1.04993 1.04993 1.04405 1.04405 1.04405 
1.04405 1.04405 1.04405 1.04405 1.04405 1.04405 1.04405 1.03817 1.03817 
1.03817 1.03817 1.03817 1.03817 1.03817 1.03817 1.03817 1.03817 1.0323 
1.0323 1.0323 1.0323 1.0323 1.0323 1.0323 1.0323 1.0323 1.0323 
1.02645 1.02645 1.02645 1.02645 1.02645 1.02645 1.02645 1.02645 1.02645 
1.02645 1.02061 1.02061 1.02061 1.02061 1.02061 1.02061 1.02061 1.02061 
1.02061 1.02061 1.01477 1.01477 1.01477 1.01477 1.01477 1.01477 1.01477 
1.01477 1.01477 1.01477 1.00895 1.00895 1.00895 1.00895 1.00895 1.00895 
1.00895 1.00895 1.00895 1.00895 1.00314 1.00314 1.00314 1.00314 1.00314 
1.00314 1.00314 1.00314 1.00314 1.00314 0.99734 0.99734 0.99734 0.99734 
0.99734 0.99734 0.99734 0.99734 0.99734 0.99734 0.991551 0.991551 0.991551 
0.991551 0.991551 0.991551 0.991551 0.991551 0.991551 0.991551 0.985774 0.985774 
0.985774 0.985774 0.985774 0.985774 0.985774 0.985774 0.985774 0.985774 0.980008 
0.980008 0.980008 0.980008 0.980008 0.980008 0.980008 0.980008 0.980008 0.980008 
0.974254 0.974254 0.974254 0.974254 0.974254 0.974254 0.974254 0.974254 0.974254 
0.974254 0.968511 0.968511 0.968511 0.968511 0.968511 0.968511 0.968511 0.968511 
0.968511 0.968511 0.96278 0.96278 0.96278 0.96278 0.96278 0.96278 0.96278 
0.96278 0.96278 0.96278 0.957061 0.957061 0.957061 0.957061 0.957061 0.957061 
0.957061 0.957061 0.957061 0.957061 0.951354 0.951354 0.951354 0.951354 0.951354 
0.951354 0.951354 0.951354 0.951354 0.951354 0.945658 0.945658 0.945658 0.945658 
0.945658 0.945658 0.945658 0.945658 0.945658 0.945658 0.939975 0.939975 0.939975 
0.939975 0.939975 0.939975 0.939975 0.939975 0.939975 0.939975 0.934304 0.934304 
0.934304 0.934304 0.934304 0.934304 0.934304 0.934304 0.934304 0.934304 0.928646 
0.928646 0.928646 0.928646 0.928646 0.928646 0.928646 0.928646 0.928646 0.928646 
0.922999 0.922999 0.922999 0.922999 0.922999 0.922999 0.922999 0.922999 0.922999 
0.922999 0.917366 0.917366 0.917366 0.917366 0.917366 0.917366 0.917366 0.917366 
0.917366 0.917366 0.911745 0.911745 0.911745 0.911745 0.911745 0.911745 0.911745 
0.911745 0.911745 0.911745 0.906136 0.906136 0.906136 0.906136 0.906136 0.906136 
0.906136 0.906136 0.906136 0.906136 0.900541 0.900541 0.900541 0.900541 0.900541 
0.900541 0.900541 0.900541 0.900541 0.900541 0.894958 0.894958 0.894958 0.894958 
0.894958 0.894958 0.894958 0.894958 0.894958 0.894958 0.889389 0.889389 0.889389 
0.889389 0.889389 0.889389 0.889389 0.889389 0.889389 0.889389 0.883833 0.883833 
0.883833 0.883833 0.883833 0.883833 0.883833 0.883833 0.883833 0.883833 0.87829 
0.87829 0.87829 0.87829 0.87829 0.87829 0.87829 0.87829 0.87829 0.87829 
0.872761 0.872761 0.872761 0.872761 0.872761 0.872761 0.872761 0.872761 0.872761 
0.872761 0.867246 0.867246 0.867246 0.867246 0.867246 0.867246 0.867246 0.867246 
0.867246 0.867246 0.861744 0.861744 0.861744 0.861744 0.861744 0.861744 0.861744 
0.861744 0.861744 0.861744 0.856256 0.856256 0.856256 0.856256 0.856256 0.856256 
0.856256 0.856256 0.856256 0.856256 0.850782 0.850782 0.850782 0.850782 0.850782 
0.850782 0.850782 0.850782 0.850782 0.850782 0.845323 0.845323 0.845323 0.845323 
0.845323 0.845323 0.845323 0.845323 0.845323 0.845323 0.839877 0.839877 0.839877 
0.839877 0.839877 0.839877 0.839877 0.839877 0.839877 0.839877 0.834447 0.834447 
0.834447 0.834447 0.834447 0.834447 0.834447 0.834447 0.834447 0.834447 0.82903 
0.82903 0.82903 0.82903 0.82903 0.82903 0.82903 0.82903 0.82903 0.82903 
0.823629 0.823629 0.823629 0.823629 0.823629 0.823629 0.823629 0.823629 0.823629 
0.823629 0.818243 0.818243 0.818243 0.818243 0.818243 0.818243 0.818243 0.818243 
0.818243 0.818243 0.812872 0.812872 0.812872 0.812872 0.812872 0.812872 0.812872 
0.812872 0.812872 0.812872 0.807516 0.807516 0.807516 0.807516 0.807516 0.807516 
0.807516 0.807516 0.807516 0.807516 0.802176 0.802176 0.802176 0.802176 0.802176 
0.802176 0.802176 0.802176 0.802176 0.802176 0.796851 0.796851 0.796851 0.796851 
0.796851 0.796851 0.796851 0.796851 0.796851 0.796851 0.791542 0.791542 0.791542 
0.791542 0.791542 0.791542 0.791542 0.791542 0.791542 0.791542 0.786249 0.786249 
0.786249 0.786249 0.786249 0.786249 0.786249 0.786249 0.786249 0.786249 0.780973 
0.780973 0.780973 0.780973 0.780973 0.780973 0.780973 0.780973 0.780973 0.780973 
0.775713 0.775713 0.775713 0.775713 0.775713 0.775713 0.775713 0.775713 0.775713 
0.775713 0.77047 0.77047 0.77047 0.77047 0.77047 0.77047 0.77047 0.77047 
0.77047 0.77047 0.765243 0.765243 0.765243 0.765243 0.765243 0.765243 0.765243 
0.765243 0.765243 0.765243 0.760034 0.760034 0.760034 0.760034 0.760034 0.760034 
0.760034 0.760034 0.760034 0.760034 0.754842 0.754842 0.754842 0.754842 0.754842 
0.754842 0.754842 0.754842 0.754842 0.754842 0.749668 0.749668 0.749668 0.749668 
0.749668 0.749668 0.749668 0.749668 0.749668 0.749668 0.744511 0.744511 0.744511 
0.744511 0.744511 0.744511 0.744511 0.744511 0.744511 0.744511 0.739372 0.739372 
0.739372 0.739372 0.739372 0.739372 0.739372 0.739372 0.739372 0.739372 0.734252 
0.734252 0.734252 0.734252 0.734252 0.734252 0.734252 0.734252 0.734252 0.734252 
0.729151 0.729151 0.729151 0.729151 0.729151 0.729151 0.729151 0.729151 0.729151 
0.729151 0.724068 0.724068 0.724068 0.724068 0.724068 0.724068 0.724068 0.724068 
0.724068 0.724068 0.719004 0.719004 0.719004 0.719004 0.719004 0.719004 0.719004 
0.719004 0.719004 0.719004 0.71396 0.71396 0.71396 0.71396 0.71396 0.71396 
0.71396 0.71396 0.71396 0.71396 0.708936 0.708936 0.708936 0.708936 0.708936 
0.708936 0.708936 0.708936 0.708936 0.708936 0.703931 0.703931 0.703931 0.703931 
0.703931 0.703931 0.703931 0.703931 0.703931 0.703931 0.698947 0.698947 0.698947 
0.698947 0.698947 0.698947 0.698947 0.698947 0.698947 0.698947 0.693984 0.693984 
0.693984 0.693984 0.693984 0.693984 0.693984 0.693984 0.693984 0.693984 0.689042 
0.689042 0.689042 0.689042 0.689042 0.689042 0.689042 0.689042 0.689042 0.689042 
0.684121 0.684121 0.684121 0.684121 0.684121 0.684121 0.684121 0.684121 0.684121 
0.684121 0.679222 0.679222 0.679222 0.679222 0.679222 0.679222 0.679222 0.679222 
0.679222 0.679222 0.674346 0.674346 0.674346 0.674346 0.674346 0.674346 0.674346 
0.674346 0.674346 0.674346 0.669491 0.669491 0.669491 0.669491 0.669491 0.669491 
0.669491 0.669491 0.669491 0.669491 0.66466 0.66466 0.66466 0.66466 0.66466 
0.66466 0.66466 0.66466 0.66466 0.66466 0.659853 0.659853 0.659853 0.659853 
0.659853 0.659853 0.659853 0.659853 0.659853 0.659853 0.655069 0.655069 0.655069 
0.655069 0.655069 0.655069 0.655069 0.655069 0.655069 0.655069 0.65031 0.65031 
0.65031 0.65031 0.65031 0.65031 0.65031 0.65031 0.65031 0.65031 0.645576 
0.645576 0.645576 0.645576 0.645576 0.645576 0.645576 0.645576 0.645576 0.645576 
0.640868 0.640868 0.640868 0.640868 0.640868 0.640868 0.640868 0.640868 0.640868 
0.640868 0.636185 0.636185 0.636185 0.636185 0.636185 0.636185 0.636185 0.636185 
0.636185 0.636185 0.63153 0.63153 0.63153 0.63153 0.63153 0.63153 0.63153 
0.63153 0.63153 0.63153 0.626901 0.626901 0.626901 0.626901 0.626901 0.626901 
0.626901 0.626901 0.626901 0.626901 0.622301 0.622301 0.622301 0.622301 0.622301 
0.622301 0.622301 0.622301 0.622301 0.622301 0.617729 0.617729 0.617729 0.617729 
0.617729 0.617729 0.617729 0.617729 0.617729 0.617729 0.613186 0.613186 0.613186 
0.613186 0.613186 0.613186 0.613186 0.613186 0.613186 0.613186 0.608674 0.608674 
0.608674 0.608674 0.608674 0.608674 0.608674 0.608674 0.608674 0.608674 0.604193 
0.604193 0.604193 0.604193 0.604193 0.604193 0.604193 0.604193 0.604193 0.604193 
0.599744 0.599744 0.599744 0.599744 0.599744 0.599744 0.599744 0.599744 0.599744 
0.599744 0.595327 0.595327 0.595327 0.595327 0.595327 0.595327 0.595327 0.595327 
0.595327 0.595327 0.590945 0.590945 0.590945 0.590945 0.590945 0.590945 0.590945 
0.590945 0.590945 0.590945 0.586597 0.586597 0.586597 0.586597 0.586597 0.586597 
0.586597 0.586597 0.586597 0.586597 0.582285 0.582285 0.582285 0.582285 0.582285 
0.582285 0.582285 0.582285 0.582285 0.582285 0.578011 0.578011 0.578011 0.578011 
0.578011 0.578011 0.578011 0.578011 0.578011 0.578011 0.573775 0.573775 0.573775 
0.573775 0.573775 0.573775 0.573775 0.573775 0.573775 0.573775 0.56958 0.56958 
0.56958 0.56958 0.56958 0.56958 0.56958 0.56958 0.56958 0.56958 0.565426 
0.565426 0.565426 0.565426 0.565426 0.565426 0.565426 0.565426 0.565426 0.565426 
0.561316 0.561316 0.561316 0.561316 0.561316 0.561316 0.561316 0.561316 0.561316 
0.561316 0.557252 0.557252 0.557252 0.557252 0.557252 0.557252 0.557252 0.557252 
0.557252 0.557252 0.553234 0.553234 0.553234 0.553234 0.553234 0.553234 0.553234 
0.553234 0.553234 0.553234 0.549267 0.549267 0.549267 0.549267 0.549267 0.549267 
0.549267 0.549267 0.549267 0.549267 0.545353 0.545353 0.545353 0.545353 0.545353 
0.545353 0.545353 0.545353 0.545353 0.545353 0.541494 0.541494 0.541494 0.541494 
0.541494 0.541494 0.541494 0.541494 0.541494 0.541494 0.537693 0.537693 0.537693 
0.537693 0.537693 0.537693 0.537693 0.537693 0.537693 0.537693 0.533956 0.533956 
0.533956 0.533956 0.533956 0.533956 0.533956 0.533956 0.533956 0.533956 0.530286 
0.530286 0.530286 0.530286 0.530286 0.530286 0.530286 0.530286 0.530286 0.530286 
0.526689 0.526689 0.526689 0.526689 0.526689 0.526689 0.526689 0.526689 0.526689 
0.526689 0.523172 0.523172 0.523172 0.523172 0.523172 0.523172 0.523172 0.523172 
0.523172 0.523172 0.519741 0.519741 0.519741 0.519741 0.519741 0.519741 0.519741 
0.519741 0.519741 0.519741 0.516407 0.516407 0.516407 0.516407 0.516407 0.516407 
0.516407 0.516407 0.516407 0.516407 0.513183 0.513183 0.513183 0.513183 0.513183 
0.513183 0.513183 0.513183 0.513183 0.513183 0.510086 0.510086 0.510086 0.510086 
0.510086 0.510086 0.510086 0.510086 0.510086 0.510086 0.507142 0.507142 0.507142 
0.507142 0.507142 0.507142 0.507142 0.507142 0.507142 0.507142 0.50439 0.50439 
0.50439 0.50439 0.50439 0.50439 0.50439 0.50439 0.50439 0.50439 0.501911 
0.501911 0.501911 0.501911 0.501911 0.501911 0.501911 0.501911 0.501911 0.501911 
0.5 0.5 0.5 0.5 0.5 0.5 0.5 0.5 0.5 
0.5 2.10184 2.10184 2.10184 2.10184 2.10184 2.10184 2.10184 2.10184 
2.10184 2.10184 2.10184 2.10184 2.10184 2.10184 2.10184 2.10184 2.10184 
2.10184 2.10184 2.10184 2.09708 2.09708 2.09708 2.09708 2.09708 2.09708 
2.09708 2.09708 2.09708 2.09708 2.09232 2.09232 2.09232 2.09232 2.09232 
2.09232 2.09232 2.09232 2.09232 2.09232 2.08757 2.08757 2.08757 2.08757 
2.08757 2.08757 2.08757 2.08757 2.08757 2.08757 2.08281 2.08281 2.08281 
2.08281 2.08281 2.08281 2.08281 2.08281 2.08281 2.08281 2.07806 2.07806 
2.07806 2.07806 2.07806 2.07806 2.07806 2.07806 2.07806 2.07806 2.07331 
2.07331 2.07331 2.07331 2.07331 2.07331 2.07331 2.07331 2.07331 2.07331 
2.06857 2.06857 2.06857 2.06857 2.06857 2.06857 2.06857 2.06857 2.06857 
2.06857 2.06382 2.06382 2.06382 2.06382 2.06382 2.06382 2.06382 2.06382 
2.06382 2.06382 2.05908 2.05908 2.05908 2.05908 2.05908 2.05908 2.05908 
2.05908 2.05908 2.05908 2.05435 2.05435 2.05435 2.05435 2.05435 2.05435 
2.05435 2.05435 2.05435 2.05435 2.04961 2.04961 2.04961 2.04961 2.04961 
2.04961 2.04961 2.04961 2.04961 2.04961 2.04488 2.04488 2.04488 2.04488 
2.04488 2.04488 2.04488 2.04488 2.04488 2.04488 2.04014 2.04014 2.04014 
2.04014 2.04014 2.04014 2.04014 2.04014 2.04014 2.04014 2.03542 2.03542 
2.03542 2.03542 2.03542 2.03542 2.03542 2.03542 2.03542 2.03542 2.03069 
2.03069 2.03069 2.03069 2.03069 2.03069 2.03069 2.03069 2.03069 2.03069 
2.02597 2.02597 2.02597 2.02597 2.02597 2.02597 2.02597 2.02597 2.02597 
2.02597 2.02124 2.02124 2.02124 2.02124 2.02124 2.02124 2.02124 2.02124 
2.02124 2.02124 2.01652 2.01652 2.01652 2.01652 2.01652 2.01652 2.01652 
2.01652 2.01652 2.01652 2.01181 2.01181 2.01181 2.01181 2.01181 2.01181 
2.01181 2.01181 2.01181 2.01181 2.00709 2.00709 2.00709 2.00709 2.00709 
2.00709 2.00709 2.00709 2.00709 2.00709 2.00238 2.00238 2.00238 2.00238 
2.00238 2.00238 2.00238 2.00238 2.00238 2.00238 1.99767 1.99767 1.99767 
1.99767 1.99767 1.99767 1.99767 1.99767 1.99767 1.99767 1.99297 1.99297 
1.99297 1.99297 1.99297 1.99297 1.99297 1.99297 1.99297 1.99297 1.98826 
1.98826 1.98826 1.98826 1.98826 1.98826 1.98826 1.98826 1.98826 1.98826 
1.98356 1.98356 1.98356 1.98356 1.98356 1.98356 1.98356 1.98356 1.98356 
1.98356 1.97886 1.97886 1.97886 1.97886 1.97886 1.97886 1.97886 1.97886 
1.97886 1.97886 1.97416 1.97416 1.97416 1.97416 1.97416 1.97416 1.97416 
1.97416 1.97416 1.97416 1.96947 1.96947 1.96947 1.96947 1.96947 1.96947 
1.96947 1.96947 1.96947 1.96947 1.96478 1.96478 1.96478 1.96478 1.96478 
1.96478 1.96478 1.96478 1.96478 1.96478 1.96009 1.96009 1.96009 1.96009 
1.96009 1.96009 1.96009 1.96009 1.96009 1.96009 1.9554 1.9554 1.9554 
1.9554 1.9554 1.9554 1.9554 1.9554 1.9554 1.9554 1.95072 1.95072 
1.95072 1.95072 1.95072 1.95072 1.95072 1.95072 1.95072 1.95072 1.94603 
1.94603 1.94603 1.94603 1.94603 1.94603 1.94603 1.94603 1.94603 1.94603 
1.94135 1.94135 1.94135 1.94135 1.94135 1.94135 1.94135 1.94135 1.94135 
1.94135 1.93668 1.93668 1.93668 1.93668 1.93668 1.93668 1.93668 1.93668 
1.93668 1.93668 1.932 1.932 1.932 1.932 1.932 1.932 1.932 
1.932 1.932 1.932 1.92733 1.92733 1.92733 1.92733 1.92733 1.92733 
1.92733 1.92733 1.92733 1.92733 1.92266 1.92266 1.92266 1.92266 1.92266 
1.92266 1.92266 1.92266 1.92266 1.92266 1.918 1.918 1.918 1.918 
1.918 1.918 1.918 1.918 1.918 1.918 1.91333 1.91333 1.91333 
1.91333 1.91333 1.91333 1.91333 1.91333 1.91333 1.91333 1.90867 1.90867 
1.90867 1.90867 1.90867 1.90867 1.90867 1.90867 1.90867 1.90867 1.90401 
1.90401 1.90401 1.90401 1.90401 1.90401 1.90401 1.90401 1.90401 1.90401 
1.89935 1.89935 1.89935 1.89935 1.89935 1.89935 1.89935 1.89935 1.89935 
1.89935 1.8947 1.8947 1.8947 1.8947 1.8947 1.8947 1.8947 1.8947 
1.8947 1.8947 1.89005 1.89005 1.89005 1.89005 1.89005 1.89005 1.89005 
1.89005 1.89005 1.89005 1.8854 1.8854 1.8854 1.8854 1.8854 1.8854 
1.8854 1.8854 1.8854 1.8854 1.88076 1.88076 1.88076 1.88076 1.88076 
1.88076 1.88076 1.88076 1.88076 1.88076 1.87611 1.87611 1.87611 1.87611 
1.87611 1.87611 1.87611 1.87611 1.87611 1.87611 1.87147 1.87147 1.87147 
1.87147 1.87147 1.87147 1.87147 1.87147 1.87147 1.87147 1.86683 1.86683 
1.86683 1.86683 1.86683 1.86683 1.86683 1.86683 1.86683 1.86683 1.8622 
1.8622 1.8622 1.8622 1.8622 1.8622 1.8622 1.8622 1.8622 1.8622 
1.85756 1.85756 1.85756 1.85756 1.85756 1.85756 1.85756 1.85756 1.85756 
1.85756 1.85293 1.85293 1.85293 1.85293 1.85293 1.85293 1.85293 1.85293 
1.85293 1.85293 1.84831 1.84831 1.84831 1.84831 1.84831 1.84831 1.84831 